LAMMPS Description

     5112  atoms
     0  bonds
     0  angles
     0  dihedrals
     0  impropers

     4  atom types

  0.0 7.2 xlo xhi
  -32.5 30.5 ylo yhi
  0.0 7.2 zlo zhi

Masses

    1 1.0
    2 1.0
    3 1.0
	4 1.0

Atoms

1 4 0.0 0.0 0.0
2 1 0.0 -0.6 0.6
3 1 0.6 0.0 0.6
4 1 0.6 -0.6 0.0
5 1 1.2 0.0 0.0
6 1 1.2 -0.6 0.6
7 1 1.8 0.0 0.6
8 1 1.8 -0.6 0.0
9 1 2.4 0.0 0.0
10 1 2.4 -0.6 0.6
11 1 3.0 0.0 0.6
12 1 3.0 -0.6 0.0
13 1 3.6 0.0 0.0
14 1 3.6 -0.6 0.6
15 1 4.2 0.0 0.6
16 1 4.2 -0.6 0.0
17 1 4.8 0.0 0.0
18 1 4.8 -0.6 0.6
19 1 5.4 0.0 0.6
20 1 5.4 -0.6 0.0
21 1 6.0 0.0 0.0
22 1 6.0 -0.6 0.6
23 1 6.6 0.0 0.6
24 1 6.6 -0.6 0.0
25 1 0.0 -1.2 0.0
26 1 0.0 -1.8 0.6
27 1 0.6 -1.2 0.6
28 1 0.6 -1.8 0.0
29 1 1.2 -1.2 0.0
30 1 1.2 -1.8 0.6
31 1 1.8 -1.2 0.6
32 1 1.8 -1.8 0.0
33 1 2.4 -1.2 0.0
34 1 2.4 -1.8 0.6
35 1 3.0 -1.2 0.6
36 1 3.0 -1.8 0.0
37 1 3.6 -1.2 0.0
38 1 3.6 -1.8 0.6
39 1 4.2 -1.2 0.6
40 1 4.2 -1.8 0.0
41 1 4.8 -1.2 0.0
42 1 4.8 -1.8 0.6
43 1 5.4 -1.2 0.6
44 1 5.4 -1.8 0.0
45 1 6.0 -1.2 0.0
46 1 6.0 -1.8 0.6
47 1 6.6 -1.2 0.6
48 1 6.6 -1.8 0.0
49 1 0.0 -2.4 0.0
50 1 0.0 -3.0 0.6
51 1 0.6 -2.4 0.6
52 1 0.6 -3.0 0.0
53 1 1.2 -2.4 0.0
54 1 1.2 -3.0 0.6
55 1 1.8 -2.4 0.6
56 1 1.8 -3.0 0.0
57 1 2.4 -2.4 0.0
58 1 2.4 -3.0 0.6
59 1 3.0 -2.4 0.6
60 1 3.0 -3.0 0.0
61 1 3.6 -2.4 0.0
62 1 3.6 -3.0 0.6
63 1 4.2 -2.4 0.6
64 1 4.2 -3.0 0.0
65 1 4.8 -2.4 0.0
66 1 4.8 -3.0 0.6
67 1 5.4 -2.4 0.6
68 1 5.4 -3.0 0.0
69 1 6.0 -2.4 0.0
70 1 6.0 -3.0 0.6
71 1 6.6 -2.4 0.6
72 1 6.6 -3.0 0.0
73 1 0.0 -3.6 0.0
74 1 0.0 -4.2 0.6
75 1 0.6 -3.6 0.6
76 1 0.6 -4.2 0.0
77 1 1.2 -3.6 0.0
78 1 1.2 -4.2 0.6
79 1 1.8 -3.6 0.6
80 1 1.8 -4.2 0.0
81 1 2.4 -3.6 0.0
82 1 2.4 -4.2 0.6
83 1 3.0 -3.6 0.6
84 1 3.0 -4.2 0.0
85 1 3.6 -3.6 0.0
86 1 3.6 -4.2 0.6
87 1 4.2 -3.6 0.6
88 1 4.2 -4.2 0.0
89 1 4.8 -3.6 0.0
90 1 4.8 -4.2 0.6
91 1 5.4 -3.6 0.6
92 1 5.4 -4.2 0.0
93 1 6.0 -3.6 0.0
94 1 6.0 -4.2 0.6
95 1 6.6 -3.6 0.6
96 1 6.6 -4.2 0.0
97 1 0.0 -4.8 0.0
98 1 0.0 -5.4 0.6
99 1 0.6 -4.8 0.6
100 1 0.6 -5.4 0.0
101 1 1.2 -4.8 0.0
102 1 1.2 -5.4 0.6
103 1 1.8 -4.8 0.6
104 1 1.8 -5.4 0.0
105 1 2.4 -4.8 0.0
106 1 2.4 -5.4 0.6
107 1 3.0 -4.8 0.6
108 1 3.0 -5.4 0.0
109 1 3.6 -4.8 0.0
110 1 3.6 -5.4 0.6
111 1 4.2 -4.8 0.6
112 1 4.2 -5.4 0.0
113 1 4.8 -4.8 0.0
114 1 4.8 -5.4 0.6
115 1 5.4 -4.8 0.6
116 1 5.4 -5.4 0.0
117 1 6.0 -4.8 0.0
118 1 6.0 -5.4 0.6
119 1 6.6 -4.8 0.6
120 1 6.6 -5.4 0.0
121 1 0.0 -6.0 0.0
122 1 0.0 -6.6 0.6
123 1 0.6 -6.0 0.6
124 1 0.6 -6.6 0.0
125 1 1.2 -6.0 0.0
126 1 1.2 -6.6 0.6
127 1 1.8 -6.0 0.6
128 1 1.8 -6.6 0.0
129 1 2.4 -6.0 0.0
130 1 2.4 -6.6 0.6
131 1 3.0 -6.0 0.6
132 1 3.0 -6.6 0.0
133 1 3.6 -6.0 0.0
134 1 3.6 -6.6 0.6
135 1 4.2 -6.0 0.6
136 1 4.2 -6.6 0.0
137 1 4.8 -6.0 0.0
138 1 4.8 -6.6 0.6
139 1 5.4 -6.0 0.6
140 1 5.4 -6.6 0.0
141 1 6.0 -6.0 0.0
142 1 6.0 -6.6 0.6
143 1 6.6 -6.0 0.6
144 1 6.6 -6.6 0.0
145 1 0.0 -7.2 0.0
146 1 0.0 -7.8 0.6
147 1 0.6 -7.2 0.6
148 1 0.6 -7.8 0.0
149 1 1.2 -7.2 0.0
150 1 1.2 -7.8 0.6
151 1 1.8 -7.2 0.6
152 1 1.8 -7.8 0.0
153 1 2.4 -7.2 0.0
154 1 2.4 -7.8 0.6
155 1 3.0 -7.2 0.6
156 1 3.0 -7.8 0.0
157 1 3.6 -7.2 0.0
158 1 3.6 -7.8 0.6
159 1 4.2 -7.2 0.6
160 1 4.2 -7.8 0.0
161 1 4.8 -7.2 0.0
162 1 4.8 -7.8 0.6
163 1 5.4 -7.2 0.6
164 1 5.4 -7.8 0.0
165 1 6.0 -7.2 0.0
166 1 6.0 -7.8 0.6
167 1 6.6 -7.2 0.6
168 1 6.6 -7.8 0.0
169 1 0.0 -8.4 0.0
170 1 0.0 -9.0 0.6
171 1 0.6 -8.4 0.6
172 1 0.6 -9.0 0.0
173 1 1.2 -8.4 0.0
174 1 1.2 -9.0 0.6
175 1 1.8 -8.4 0.6
176 1 1.8 -9.0 0.0
177 1 2.4 -8.4 0.0
178 1 2.4 -9.0 0.6
179 1 3.0 -8.4 0.6
180 1 3.0 -9.0 0.0
181 1 3.6 -8.4 0.0
182 1 3.6 -9.0 0.6
183 1 4.2 -8.4 0.6
184 1 4.2 -9.0 0.0
185 1 4.8 -8.4 0.0
186 1 4.8 -9.0 0.6
187 1 5.4 -8.4 0.6
188 1 5.4 -9.0 0.0
189 1 6.0 -8.4 0.0
190 1 6.0 -9.0 0.6
191 1 6.6 -8.4 0.6
192 1 6.6 -9.0 0.0
193 1 0.0 -9.6 0.0
194 1 0.0 -10.2 0.6
195 1 0.6 -9.6 0.6
196 1 0.6 -10.2 0.0
197 1 1.2 -9.6 0.0
198 1 1.2 -10.2 0.6
199 1 1.8 -9.6 0.6
200 1 1.8 -10.2 0.0
201 1 2.4 -9.6 0.0
202 1 2.4 -10.2 0.6
203 1 3.0 -9.6 0.6
204 1 3.0 -10.2 0.0
205 1 3.6 -9.6 0.0
206 1 3.6 -10.2 0.6
207 1 4.2 -9.6 0.6
208 1 4.2 -10.2 0.0
209 1 4.8 -9.6 0.0
210 1 4.8 -10.2 0.6
211 1 5.4 -9.6 0.6
212 1 5.4 -10.2 0.0
213 1 6.0 -9.6 0.0
214 1 6.0 -10.2 0.6
215 1 6.6 -9.6 0.6
216 1 6.6 -10.2 0.0
217 1 0.0 -10.8 0.0
218 1 0.0 -11.4 0.6
219 1 0.6 -10.8 0.6
220 1 0.6 -11.4 0.0
221 1 1.2 -10.8 0.0
222 1 1.2 -11.4 0.6
223 1 1.8 -10.8 0.6
224 1 1.8 -11.4 0.0
225 1 2.4 -10.8 0.0
226 1 2.4 -11.4 0.6
227 1 3.0 -10.8 0.6
228 1 3.0 -11.4 0.0
229 1 3.6 -10.8 0.0
230 1 3.6 -11.4 0.6
231 1 4.2 -10.8 0.6
232 1 4.2 -11.4 0.0
233 1 4.8 -10.8 0.0
234 1 4.8 -11.4 0.6
235 1 5.4 -10.8 0.6
236 1 5.4 -11.4 0.0
237 1 6.0 -10.8 0.0
238 1 6.0 -11.4 0.6
239 1 6.6 -10.8 0.6
240 1 6.6 -11.4 0.0
241 1 0.0 -12.0 0.0
242 1 0.0 -12.6 0.6
243 1 0.6 -12.0 0.6
244 1 0.6 -12.6 0.0
245 1 1.2 -12.0 0.0
246 1 1.2 -12.6 0.6
247 1 1.8 -12.0 0.6
248 1 1.8 -12.6 0.0
249 1 2.4 -12.0 0.0
250 1 2.4 -12.6 0.6
251 1 3.0 -12.0 0.6
252 1 3.0 -12.6 0.0
253 1 3.6 -12.0 0.0
254 1 3.6 -12.6 0.6
255 1 4.2 -12.0 0.6
256 1 4.2 -12.6 0.0
257 1 4.8 -12.0 0.0
258 1 4.8 -12.6 0.6
259 1 5.4 -12.0 0.6
260 1 5.4 -12.6 0.0
261 1 6.0 -12.0 0.0
262 1 6.0 -12.6 0.6
263 1 6.6 -12.0 0.6
264 1 6.6 -12.6 0.0
265 1 0.0 -13.2 0.0
266 1 0.0 -13.8 0.6
267 1 0.6 -13.2 0.6
268 1 0.6 -13.8 0.0
269 1 1.2 -13.2 0.0
270 1 1.2 -13.8 0.6
271 1 1.8 -13.2 0.6
272 1 1.8 -13.8 0.0
273 1 2.4 -13.2 0.0
274 1 2.4 -13.8 0.6
275 1 3.0 -13.2 0.6
276 1 3.0 -13.8 0.0
277 1 3.6 -13.2 0.0
278 1 3.6 -13.8 0.6
279 1 4.2 -13.2 0.6
280 1 4.2 -13.8 0.0
281 1 4.8 -13.2 0.0
282 1 4.8 -13.8 0.6
283 1 5.4 -13.2 0.6
284 1 5.4 -13.8 0.0
285 1 6.0 -13.2 0.0
286 1 6.0 -13.8 0.6
287 1 6.6 -13.2 0.6
288 1 6.6 -13.8 0.0
289 1 0.0 -14.4 0.0
290 1 0.0 -15.0 0.6
291 1 0.6 -14.4 0.6
292 1 0.6 -15.0 0.0
293 1 1.2 -14.4 0.0
294 1 1.2 -15.0 0.6
295 1 1.8 -14.4 0.6
296 1 1.8 -15.0 0.0
297 1 2.4 -14.4 0.0
298 1 2.4 -15.0 0.6
299 1 3.0 -14.4 0.6
300 1 3.0 -15.0 0.0
301 1 3.6 -14.4 0.0
302 1 3.6 -15.0 0.6
303 1 4.2 -14.4 0.6
304 1 4.2 -15.0 0.0
305 1 4.8 -14.4 0.0
306 1 4.8 -15.0 0.6
307 1 5.4 -14.4 0.6
308 1 5.4 -15.0 0.0
309 1 6.0 -14.4 0.0
310 1 6.0 -15.0 0.6
311 1 6.6 -14.4 0.6
312 1 6.6 -15.0 0.0
313 1 0.0 -15.6 0.0
314 1 0.0 -16.2 0.6
315 1 0.6 -15.6 0.6
316 1 0.6 -16.2 0.0
317 1 1.2 -15.6 0.0
318 1 1.2 -16.2 0.6
319 1 1.8 -15.6 0.6
320 1 1.8 -16.2 0.0
321 1 2.4 -15.6 0.0
322 1 2.4 -16.2 0.6
323 1 3.0 -15.6 0.6
324 1 3.0 -16.2 0.0
325 1 3.6 -15.6 0.0
326 1 3.6 -16.2 0.6
327 1 4.2 -15.6 0.6
328 1 4.2 -16.2 0.0
329 1 4.8 -15.6 0.0
330 1 4.8 -16.2 0.6
331 1 5.4 -15.6 0.6
332 1 5.4 -16.2 0.0
333 1 6.0 -15.6 0.0
334 1 6.0 -16.2 0.6
335 1 6.6 -15.6 0.6
336 1 6.6 -16.2 0.0
337 1 0.0 -16.8 0.0
338 1 0.0 -17.4 0.6
339 1 0.6 -16.8 0.6
340 1 0.6 -17.4 0.0
341 1 1.2 -16.8 0.0
342 1 1.2 -17.4 0.6
343 1 1.8 -16.8 0.6
344 1 1.8 -17.4 0.0
345 1 2.4 -16.8 0.0
346 1 2.4 -17.4 0.6
347 1 3.0 -16.8 0.6
348 1 3.0 -17.4 0.0
349 1 3.6 -16.8 0.0
350 1 3.6 -17.4 0.6
351 1 4.2 -16.8 0.6
352 1 4.2 -17.4 0.0
353 1 4.8 -16.8 0.0
354 1 4.8 -17.4 0.6
355 1 5.4 -16.8 0.6
356 1 5.4 -17.4 0.0
357 1 6.0 -16.8 0.0
358 1 6.0 -17.4 0.6
359 1 6.6 -16.8 0.6
360 1 6.6 -17.4 0.0
361 1 0.0 -18.0 0.0
362 1 0.0 -18.6 0.6
363 1 0.6 -18.0 0.6
364 1 0.6 -18.6 0.0
365 1 1.2 -18.0 0.0
366 1 1.2 -18.6 0.6
367 1 1.8 -18.0 0.6
368 1 1.8 -18.6 0.0
369 1 2.4 -18.0 0.0
370 1 2.4 -18.6 0.6
371 1 3.0 -18.0 0.6
372 1 3.0 -18.6 0.0
373 1 3.6 -18.0 0.0
374 1 3.6 -18.6 0.6
375 1 4.2 -18.0 0.6
376 1 4.2 -18.6 0.0
377 1 4.8 -18.0 0.0
378 1 4.8 -18.6 0.6
379 1 5.4 -18.0 0.6
380 1 5.4 -18.6 0.0
381 1 6.0 -18.0 0.0
382 1 6.0 -18.6 0.6
383 1 6.6 -18.0 0.6
384 1 6.6 -18.6 0.0
385 1 0.0 -19.2 0.0
386 1 0.0 -19.8 0.6
387 1 0.6 -19.2 0.6
388 1 0.6 -19.8 0.0
389 1 1.2 -19.2 0.0
390 1 1.2 -19.8 0.6
391 1 1.8 -19.2 0.6
392 1 1.8 -19.8 0.0
393 1 2.4 -19.2 0.0
394 1 2.4 -19.8 0.6
395 1 3.0 -19.2 0.6
396 1 3.0 -19.8 0.0
397 1 3.6 -19.2 0.0
398 1 3.6 -19.8 0.6
399 1 4.2 -19.2 0.6
400 1 4.2 -19.8 0.0
401 1 4.8 -19.2 0.0
402 1 4.8 -19.8 0.6
403 1 5.4 -19.2 0.6
404 1 5.4 -19.8 0.0
405 1 6.0 -19.2 0.0
406 1 6.0 -19.8 0.6
407 1 6.6 -19.2 0.6
408 1 6.6 -19.8 0.0
409 1 0.0 -20.4 0.0
410 1 0.0 -21.0 0.6
411 1 0.6 -20.4 0.6
412 1 0.6 -21.0 0.0
413 1 1.2 -20.4 0.0
414 1 1.2 -21.0 0.6
415 1 1.8 -20.4 0.6
416 1 1.8 -21.0 0.0
417 1 2.4 -20.4 0.0
418 1 2.4 -21.0 0.6
419 1 3.0 -20.4 0.6
420 1 3.0 -21.0 0.0
421 1 3.6 -20.4 0.0
422 1 3.6 -21.0 0.6
423 1 4.2 -20.4 0.6
424 1 4.2 -21.0 0.0
425 1 4.8 -20.4 0.0
426 1 4.8 -21.0 0.6
427 1 5.4 -20.4 0.6
428 1 5.4 -21.0 0.0
429 1 6.0 -20.4 0.0
430 1 6.0 -21.0 0.6
431 1 6.6 -20.4 0.6
432 1 6.6 -21.0 0.0
433 1 0.0 -21.6 0.0
434 1 0.0 -22.2 0.6
435 1 0.6 -21.6 0.6
436 1 0.6 -22.2 0.0
437 1 1.2 -21.6 0.0
438 1 1.2 -22.2 0.6
439 1 1.8 -21.6 0.6
440 1 1.8 -22.2 0.0
441 1 2.4 -21.6 0.0
442 1 2.4 -22.2 0.6
443 1 3.0 -21.6 0.6
444 1 3.0 -22.2 0.0
445 1 3.6 -21.6 0.0
446 1 3.6 -22.2 0.6
447 1 4.2 -21.6 0.6
448 1 4.2 -22.2 0.0
449 1 4.8 -21.6 0.0
450 1 4.8 -22.2 0.6
451 1 5.4 -21.6 0.6
452 1 5.4 -22.2 0.0
453 1 6.0 -21.6 0.0
454 1 6.0 -22.2 0.6
455 1 6.6 -21.6 0.6
456 1 6.6 -22.2 0.0
457 1 0.0 -22.8 0.0
458 1 0.0 -23.4 0.6
459 1 0.6 -22.8 0.6
460 1 0.6 -23.4 0.0
461 1 1.2 -22.8 0.0
462 1 1.2 -23.4 0.6
463 1 1.8 -22.8 0.6
464 1 1.8 -23.4 0.0
465 1 2.4 -22.8 0.0
466 1 2.4 -23.4 0.6
467 1 3.0 -22.8 0.6
468 1 3.0 -23.4 0.0
469 1 3.6 -22.8 0.0
470 1 3.6 -23.4 0.6
471 1 4.2 -22.8 0.6
472 1 4.2 -23.4 0.0
473 1 4.8 -22.8 0.0
474 1 4.8 -23.4 0.6
475 1 5.4 -22.8 0.6
476 1 5.4 -23.4 0.0
477 1 6.0 -22.8 0.0
478 1 6.0 -23.4 0.6
479 1 6.6 -22.8 0.6
480 1 6.6 -23.4 0.0
481 1 0.0 -24.0 0.0
482 1 0.0 -24.6 0.6
483 1 0.6 -24.0 0.6
484 1 0.6 -24.6 0.0
485 1 1.2 -24.0 0.0
486 1 1.2 -24.6 0.6
487 1 1.8 -24.0 0.6
488 1 1.8 -24.6 0.0
489 1 2.4 -24.0 0.0
490 1 2.4 -24.6 0.6
491 1 3.0 -24.0 0.6
492 1 3.0 -24.6 0.0
493 1 3.6 -24.0 0.0
494 1 3.6 -24.6 0.6
495 1 4.2 -24.0 0.6
496 1 4.2 -24.6 0.0
497 1 4.8 -24.0 0.0
498 1 4.8 -24.6 0.6
499 1 5.4 -24.0 0.6
500 1 5.4 -24.6 0.0
501 1 6.0 -24.0 0.0
502 1 6.0 -24.6 0.6
503 1 6.6 -24.0 0.6
504 1 6.6 -24.6 0.0
505 1 0.0 -25.2 0.0
506 1 0.0 -25.8 0.6
507 1 0.6 -25.2 0.6
508 1 0.6 -25.8 0.0
509 1 1.2 -25.2 0.0
510 1 1.2 -25.8 0.6
511 1 1.8 -25.2 0.6
512 1 1.8 -25.8 0.0
513 1 2.4 -25.2 0.0
514 1 2.4 -25.8 0.6
515 1 3.0 -25.2 0.6
516 1 3.0 -25.8 0.0
517 1 3.6 -25.2 0.0
518 1 3.6 -25.8 0.6
519 1 4.2 -25.2 0.6
520 1 4.2 -25.8 0.0
521 1 4.8 -25.2 0.0
522 1 4.8 -25.8 0.6
523 1 5.4 -25.2 0.6
524 1 5.4 -25.8 0.0
525 1 6.0 -25.2 0.0
526 1 6.0 -25.8 0.6
527 1 6.6 -25.2 0.6
528 1 6.6 -25.8 0.0
529 1 0.0 -26.4 0.0
530 1 0.0 -27.0 0.6
531 1 0.6 -26.4 0.6
532 1 0.6 -27.0 0.0
533 1 1.2 -26.4 0.0
534 1 1.2 -27.0 0.6
535 1 1.8 -26.4 0.6
536 1 1.8 -27.0 0.0
537 1 2.4 -26.4 0.0
538 1 2.4 -27.0 0.6
539 1 3.0 -26.4 0.6
540 1 3.0 -27.0 0.0
541 1 3.6 -26.4 0.0
542 1 3.6 -27.0 0.6
543 1 4.2 -26.4 0.6
544 1 4.2 -27.0 0.0
545 1 4.8 -26.4 0.0
546 1 4.8 -27.0 0.6
547 1 5.4 -26.4 0.6
548 1 5.4 -27.0 0.0
549 1 6.0 -26.4 0.0
550 1 6.0 -27.0 0.6
551 1 6.6 -26.4 0.6
552 1 6.6 -27.0 0.0
553 1 0.0 -27.6 0.0
554 1 0.0 -28.2 0.6
555 1 0.6 -27.6 0.6
556 1 0.6 -28.2 0.0
557 1 1.2 -27.6 0.0
558 1 1.2 -28.2 0.6
559 1 1.8 -27.6 0.6
560 1 1.8 -28.2 0.0
561 1 2.4 -27.6 0.0
562 1 2.4 -28.2 0.6
563 1 3.0 -27.6 0.6
564 1 3.0 -28.2 0.0
565 1 3.6 -27.6 0.0
566 1 3.6 -28.2 0.6
567 1 4.2 -27.6 0.6
568 1 4.2 -28.2 0.0
569 1 4.8 -27.6 0.0
570 1 4.8 -28.2 0.6
571 1 5.4 -27.6 0.6
572 1 5.4 -28.2 0.0
573 1 6.0 -27.6 0.0
574 1 6.0 -28.2 0.6
575 1 6.6 -27.6 0.6
576 1 6.6 -28.2 0.0
577 1 0.0 -28.8 0.0
578 1 0.0 -29.4 0.6
579 1 0.6 -28.8 0.6
580 1 0.6 -29.4 0.0
581 1 1.2 -28.8 0.0
582 1 1.2 -29.4 0.6
583 1 1.8 -28.8 0.6
584 1 1.8 -29.4 0.0
585 1 2.4 -28.8 0.0
586 1 2.4 -29.4 0.6
587 1 3.0 -28.8 0.6
588 1 3.0 -29.4 0.0
589 1 3.6 -28.8 0.0
590 1 3.6 -29.4 0.6
591 1 4.2 -28.8 0.6
592 1 4.2 -29.4 0.0
593 1 4.8 -28.8 0.0
594 1 4.8 -29.4 0.6
595 1 5.4 -28.8 0.6
596 1 5.4 -29.4 0.0
597 1 6.0 -28.8 0.0
598 1 6.0 -29.4 0.6
599 1 6.6 -28.8 0.6
600 1 6.6 -29.4 0.0
601 1 0.0 -30.0 0.0
602 1 0.0 -30.6 0.6
603 1 0.6 -30.0 0.6
604 1 0.6 -30.6 0.0
605 1 1.2 -30.0 0.0
606 1 1.2 -30.6 0.6
607 1 1.8 -30.0 0.6
608 1 1.8 -30.6 0.0
609 1 2.4 -30.0 0.0
610 1 2.4 -30.6 0.6
611 1 3.0 -30.0 0.6
612 1 3.0 -30.6 0.0
613 1 3.6 -30.0 0.0
614 1 3.6 -30.6 0.6
615 1 4.2 -30.0 0.6
616 1 4.2 -30.6 0.0
617 1 4.8 -30.0 0.0
618 1 4.8 -30.6 0.6
619 1 5.4 -30.0 0.6
620 1 5.4 -30.6 0.0
621 1 6.0 -30.0 0.0
622 1 6.0 -30.6 0.6
623 1 6.6 -30.0 0.6
624 1 6.6 -30.6 0.0
625 1 0.0 -31.2 0.0
626 1 0.0 -31.8 0.6
627 1 0.6 -31.2 0.6
628 1 0.6 -31.8 0.0
629 1 1.2 -31.2 0.0
630 1 1.2 -31.8 0.6
631 1 1.8 -31.2 0.6
632 1 1.8 -31.8 0.0
633 1 2.4 -31.2 0.0
634 1 2.4 -31.8 0.6
635 1 3.0 -31.2 0.6
636 1 3.0 -31.8 0.0
637 1 3.6 -31.2 0.0
638 1 3.6 -31.8 0.6
639 1 4.2 -31.2 0.6
640 1 4.2 -31.8 0.0
641 1 4.8 -31.2 0.0
642 1 4.8 -31.8 0.6
643 1 5.4 -31.2 0.6
644 1 5.4 -31.8 0.0
645 1 6.0 -31.2 0.0
646 1 6.0 -31.8 0.6
647 1 6.6 -31.2 0.6
648 1 6.6 -31.8 0.0
649 1 0.0 0.0 1.2
650 1 0.0 -0.6 1.8
651 1 0.6 0.0 1.8
652 1 0.6 -0.6 1.2
653 1 1.2 0.0 1.2
654 1 1.2 -0.6 1.8
655 1 1.8 0.0 1.8
656 1 1.8 -0.6 1.2
657 1 2.4 0.0 1.2
658 1 2.4 -0.6 1.8
659 1 3.0 0.0 1.8
660 1 3.0 -0.6 1.2
661 1 3.6 0.0 1.2
662 1 3.6 -0.6 1.8
663 1 4.2 0.0 1.8
664 1 4.2 -0.6 1.2
665 1 4.8 0.0 1.2
666 1 4.8 -0.6 1.8
667 1 5.4 0.0 1.8
668 1 5.4 -0.6 1.2
669 1 6.0 0.0 1.2
670 1 6.0 -0.6 1.8
671 1 6.6 0.0 1.8
672 1 6.6 -0.6 1.2
673 1 0.0 -1.2 1.2
674 1 0.0 -1.8 1.8
675 1 0.6 -1.2 1.8
676 1 0.6 -1.8 1.2
677 1 1.2 -1.2 1.2
678 1 1.2 -1.8 1.8
679 1 1.8 -1.2 1.8
680 1 1.8 -1.8 1.2
681 1 2.4 -1.2 1.2
682 1 2.4 -1.8 1.8
683 1 3.0 -1.2 1.8
684 1 3.0 -1.8 1.2
685 1 3.6 -1.2 1.2
686 1 3.6 -1.8 1.8
687 1 4.2 -1.2 1.8
688 1 4.2 -1.8 1.2
689 1 4.8 -1.2 1.2
690 1 4.8 -1.8 1.8
691 1 5.4 -1.2 1.8
692 1 5.4 -1.8 1.2
693 1 6.0 -1.2 1.2
694 1 6.0 -1.8 1.8
695 1 6.6 -1.2 1.8
696 1 6.6 -1.8 1.2
697 1 0.0 -2.4 1.2
698 1 0.0 -3.0 1.8
699 1 0.6 -2.4 1.8
700 1 0.6 -3.0 1.2
701 1 1.2 -2.4 1.2
702 1 1.2 -3.0 1.8
703 1 1.8 -2.4 1.8
704 1 1.8 -3.0 1.2
705 1 2.4 -2.4 1.2
706 1 2.4 -3.0 1.8
707 1 3.0 -2.4 1.8
708 1 3.0 -3.0 1.2
709 1 3.6 -2.4 1.2
710 1 3.6 -3.0 1.8
711 1 4.2 -2.4 1.8
712 1 4.2 -3.0 1.2
713 1 4.8 -2.4 1.2
714 1 4.8 -3.0 1.8
715 1 5.4 -2.4 1.8
716 1 5.4 -3.0 1.2
717 1 6.0 -2.4 1.2
718 1 6.0 -3.0 1.8
719 1 6.6 -2.4 1.8
720 1 6.6 -3.0 1.2
721 1 0.0 -3.6 1.2
722 1 0.0 -4.2 1.8
723 1 0.6 -3.6 1.8
724 1 0.6 -4.2 1.2
725 1 1.2 -3.6 1.2
726 1 1.2 -4.2 1.8
727 1 1.8 -3.6 1.8
728 1 1.8 -4.2 1.2
729 1 2.4 -3.6 1.2
730 1 2.4 -4.2 1.8
731 1 3.0 -3.6 1.8
732 1 3.0 -4.2 1.2
733 1 3.6 -3.6 1.2
734 1 3.6 -4.2 1.8
735 1 4.2 -3.6 1.8
736 1 4.2 -4.2 1.2
737 1 4.8 -3.6 1.2
738 1 4.8 -4.2 1.8
739 1 5.4 -3.6 1.8
740 1 5.4 -4.2 1.2
741 1 6.0 -3.6 1.2
742 1 6.0 -4.2 1.8
743 1 6.6 -3.6 1.8
744 1 6.6 -4.2 1.2
745 1 0.0 -4.8 1.2
746 1 0.0 -5.4 1.8
747 1 0.6 -4.8 1.8
748 1 0.6 -5.4 1.2
749 1 1.2 -4.8 1.2
750 1 1.2 -5.4 1.8
751 1 1.8 -4.8 1.8
752 1 1.8 -5.4 1.2
753 1 2.4 -4.8 1.2
754 1 2.4 -5.4 1.8
755 1 3.0 -4.8 1.8
756 1 3.0 -5.4 1.2
757 1 3.6 -4.8 1.2
758 1 3.6 -5.4 1.8
759 1 4.2 -4.8 1.8
760 1 4.2 -5.4 1.2
761 1 4.8 -4.8 1.2
762 1 4.8 -5.4 1.8
763 1 5.4 -4.8 1.8
764 1 5.4 -5.4 1.2
765 1 6.0 -4.8 1.2
766 1 6.0 -5.4 1.8
767 1 6.6 -4.8 1.8
768 1 6.6 -5.4 1.2
769 1 0.0 -6.0 1.2
770 1 0.0 -6.6 1.8
771 1 0.6 -6.0 1.8
772 1 0.6 -6.6 1.2
773 1 1.2 -6.0 1.2
774 1 1.2 -6.6 1.8
775 1 1.8 -6.0 1.8
776 1 1.8 -6.6 1.2
777 1 2.4 -6.0 1.2
778 1 2.4 -6.6 1.8
779 1 3.0 -6.0 1.8
780 1 3.0 -6.6 1.2
781 1 3.6 -6.0 1.2
782 1 3.6 -6.6 1.8
783 1 4.2 -6.0 1.8
784 1 4.2 -6.6 1.2
785 1 4.8 -6.0 1.2
786 1 4.8 -6.6 1.8
787 1 5.4 -6.0 1.8
788 1 5.4 -6.6 1.2
789 1 6.0 -6.0 1.2
790 1 6.0 -6.6 1.8
791 1 6.6 -6.0 1.8
792 1 6.6 -6.6 1.2
793 1 0.0 -7.2 1.2
794 1 0.0 -7.8 1.8
795 1 0.6 -7.2 1.8
796 1 0.6 -7.8 1.2
797 1 1.2 -7.2 1.2
798 1 1.2 -7.8 1.8
799 1 1.8 -7.2 1.8
800 1 1.8 -7.8 1.2
801 1 2.4 -7.2 1.2
802 1 2.4 -7.8 1.8
803 1 3.0 -7.2 1.8
804 1 3.0 -7.8 1.2
805 1 3.6 -7.2 1.2
806 1 3.6 -7.8 1.8
807 1 4.2 -7.2 1.8
808 1 4.2 -7.8 1.2
809 1 4.8 -7.2 1.2
810 1 4.8 -7.8 1.8
811 1 5.4 -7.2 1.8
812 1 5.4 -7.8 1.2
813 1 6.0 -7.2 1.2
814 1 6.0 -7.8 1.8
815 1 6.6 -7.2 1.8
816 1 6.6 -7.8 1.2
817 1 0.0 -8.4 1.2
818 1 0.0 -9.0 1.8
819 1 0.6 -8.4 1.8
820 1 0.6 -9.0 1.2
821 1 1.2 -8.4 1.2
822 1 1.2 -9.0 1.8
823 1 1.8 -8.4 1.8
824 1 1.8 -9.0 1.2
825 1 2.4 -8.4 1.2
826 1 2.4 -9.0 1.8
827 1 3.0 -8.4 1.8
828 1 3.0 -9.0 1.2
829 1 3.6 -8.4 1.2
830 1 3.6 -9.0 1.8
831 1 4.2 -8.4 1.8
832 1 4.2 -9.0 1.2
833 1 4.8 -8.4 1.2
834 1 4.8 -9.0 1.8
835 1 5.4 -8.4 1.8
836 1 5.4 -9.0 1.2
837 1 6.0 -8.4 1.2
838 1 6.0 -9.0 1.8
839 1 6.6 -8.4 1.8
840 1 6.6 -9.0 1.2
841 1 0.0 -9.6 1.2
842 1 0.0 -10.2 1.8
843 1 0.6 -9.6 1.8
844 1 0.6 -10.2 1.2
845 1 1.2 -9.6 1.2
846 1 1.2 -10.2 1.8
847 1 1.8 -9.6 1.8
848 1 1.8 -10.2 1.2
849 1 2.4 -9.6 1.2
850 1 2.4 -10.2 1.8
851 1 3.0 -9.6 1.8
852 1 3.0 -10.2 1.2
853 1 3.6 -9.6 1.2
854 1 3.6 -10.2 1.8
855 1 4.2 -9.6 1.8
856 1 4.2 -10.2 1.2
857 1 4.8 -9.6 1.2
858 1 4.8 -10.2 1.8
859 1 5.4 -9.6 1.8
860 1 5.4 -10.2 1.2
861 1 6.0 -9.6 1.2
862 1 6.0 -10.2 1.8
863 1 6.6 -9.6 1.8
864 1 6.6 -10.2 1.2
865 1 0.0 -10.8 1.2
866 1 0.0 -11.4 1.8
867 1 0.6 -10.8 1.8
868 1 0.6 -11.4 1.2
869 1 1.2 -10.8 1.2
870 1 1.2 -11.4 1.8
871 1 1.8 -10.8 1.8
872 1 1.8 -11.4 1.2
873 1 2.4 -10.8 1.2
874 1 2.4 -11.4 1.8
875 1 3.0 -10.8 1.8
876 1 3.0 -11.4 1.2
877 1 3.6 -10.8 1.2
878 1 3.6 -11.4 1.8
879 1 4.2 -10.8 1.8
880 1 4.2 -11.4 1.2
881 1 4.8 -10.8 1.2
882 1 4.8 -11.4 1.8
883 1 5.4 -10.8 1.8
884 1 5.4 -11.4 1.2
885 1 6.0 -10.8 1.2
886 1 6.0 -11.4 1.8
887 1 6.6 -10.8 1.8
888 1 6.6 -11.4 1.2
889 1 0.0 -12.0 1.2
890 1 0.0 -12.6 1.8
891 1 0.6 -12.0 1.8
892 1 0.6 -12.6 1.2
893 1 1.2 -12.0 1.2
894 1 1.2 -12.6 1.8
895 1 1.8 -12.0 1.8
896 1 1.8 -12.6 1.2
897 1 2.4 -12.0 1.2
898 1 2.4 -12.6 1.8
899 1 3.0 -12.0 1.8
900 1 3.0 -12.6 1.2
901 1 3.6 -12.0 1.2
902 1 3.6 -12.6 1.8
903 1 4.2 -12.0 1.8
904 1 4.2 -12.6 1.2
905 1 4.8 -12.0 1.2
906 1 4.8 -12.6 1.8
907 1 5.4 -12.0 1.8
908 1 5.4 -12.6 1.2
909 1 6.0 -12.0 1.2
910 1 6.0 -12.6 1.8
911 1 6.6 -12.0 1.8
912 1 6.6 -12.6 1.2
913 1 0.0 -13.2 1.2
914 1 0.0 -13.8 1.8
915 1 0.6 -13.2 1.8
916 1 0.6 -13.8 1.2
917 1 1.2 -13.2 1.2
918 1 1.2 -13.8 1.8
919 1 1.8 -13.2 1.8
920 1 1.8 -13.8 1.2
921 1 2.4 -13.2 1.2
922 1 2.4 -13.8 1.8
923 1 3.0 -13.2 1.8
924 1 3.0 -13.8 1.2
925 1 3.6 -13.2 1.2
926 1 3.6 -13.8 1.8
927 1 4.2 -13.2 1.8
928 1 4.2 -13.8 1.2
929 1 4.8 -13.2 1.2
930 1 4.8 -13.8 1.8
931 1 5.4 -13.2 1.8
932 1 5.4 -13.8 1.2
933 1 6.0 -13.2 1.2
934 1 6.0 -13.8 1.8
935 1 6.6 -13.2 1.8
936 1 6.6 -13.8 1.2
937 1 0.0 -14.4 1.2
938 1 0.0 -15.0 1.8
939 1 0.6 -14.4 1.8
940 1 0.6 -15.0 1.2
941 1 1.2 -14.4 1.2
942 1 1.2 -15.0 1.8
943 1 1.8 -14.4 1.8
944 1 1.8 -15.0 1.2
945 1 2.4 -14.4 1.2
946 1 2.4 -15.0 1.8
947 1 3.0 -14.4 1.8
948 1 3.0 -15.0 1.2
949 1 3.6 -14.4 1.2
950 1 3.6 -15.0 1.8
951 1 4.2 -14.4 1.8
952 1 4.2 -15.0 1.2
953 1 4.8 -14.4 1.2
954 1 4.8 -15.0 1.8
955 1 5.4 -14.4 1.8
956 1 5.4 -15.0 1.2
957 1 6.0 -14.4 1.2
958 1 6.0 -15.0 1.8
959 1 6.6 -14.4 1.8
960 1 6.6 -15.0 1.2
961 1 0.0 -15.6 1.2
962 1 0.0 -16.2 1.8
963 1 0.6 -15.6 1.8
964 1 0.6 -16.2 1.2
965 1 1.2 -15.6 1.2
966 1 1.2 -16.2 1.8
967 1 1.8 -15.6 1.8
968 1 1.8 -16.2 1.2
969 1 2.4 -15.6 1.2
970 1 2.4 -16.2 1.8
971 1 3.0 -15.6 1.8
972 1 3.0 -16.2 1.2
973 1 3.6 -15.6 1.2
974 1 3.6 -16.2 1.8
975 1 4.2 -15.6 1.8
976 1 4.2 -16.2 1.2
977 1 4.8 -15.6 1.2
978 1 4.8 -16.2 1.8
979 1 5.4 -15.6 1.8
980 1 5.4 -16.2 1.2
981 1 6.0 -15.6 1.2
982 1 6.0 -16.2 1.8
983 1 6.6 -15.6 1.8
984 1 6.6 -16.2 1.2
985 1 0.0 -16.8 1.2
986 1 0.0 -17.4 1.8
987 1 0.6 -16.8 1.8
988 1 0.6 -17.4 1.2
989 1 1.2 -16.8 1.2
990 1 1.2 -17.4 1.8
991 1 1.8 -16.8 1.8
992 1 1.8 -17.4 1.2
993 1 2.4 -16.8 1.2
994 1 2.4 -17.4 1.8
995 1 3.0 -16.8 1.8
996 1 3.0 -17.4 1.2
997 1 3.6 -16.8 1.2
998 1 3.6 -17.4 1.8
999 1 4.2 -16.8 1.8
1000 1 4.2 -17.4 1.2
1001 1 4.8 -16.8 1.2
1002 1 4.8 -17.4 1.8
1003 1 5.4 -16.8 1.8
1004 1 5.4 -17.4 1.2
1005 1 6.0 -16.8 1.2
1006 1 6.0 -17.4 1.8
1007 1 6.6 -16.8 1.8
1008 1 6.6 -17.4 1.2
1009 1 0.0 -18.0 1.2
1010 1 0.0 -18.6 1.8
1011 1 0.6 -18.0 1.8
1012 1 0.6 -18.6 1.2
1013 1 1.2 -18.0 1.2
1014 1 1.2 -18.6 1.8
1015 1 1.8 -18.0 1.8
1016 1 1.8 -18.6 1.2
1017 1 2.4 -18.0 1.2
1018 1 2.4 -18.6 1.8
1019 1 3.0 -18.0 1.8
1020 1 3.0 -18.6 1.2
1021 1 3.6 -18.0 1.2
1022 1 3.6 -18.6 1.8
1023 1 4.2 -18.0 1.8
1024 1 4.2 -18.6 1.2
1025 1 4.8 -18.0 1.2
1026 1 4.8 -18.6 1.8
1027 1 5.4 -18.0 1.8
1028 1 5.4 -18.6 1.2
1029 1 6.0 -18.0 1.2
1030 1 6.0 -18.6 1.8
1031 1 6.6 -18.0 1.8
1032 1 6.6 -18.6 1.2
1033 1 0.0 -19.2 1.2
1034 1 0.0 -19.8 1.8
1035 1 0.6 -19.2 1.8
1036 1 0.6 -19.8 1.2
1037 1 1.2 -19.2 1.2
1038 1 1.2 -19.8 1.8
1039 1 1.8 -19.2 1.8
1040 1 1.8 -19.8 1.2
1041 1 2.4 -19.2 1.2
1042 1 2.4 -19.8 1.8
1043 1 3.0 -19.2 1.8
1044 1 3.0 -19.8 1.2
1045 1 3.6 -19.2 1.2
1046 1 3.6 -19.8 1.8
1047 1 4.2 -19.2 1.8
1048 1 4.2 -19.8 1.2
1049 1 4.8 -19.2 1.2
1050 1 4.8 -19.8 1.8
1051 1 5.4 -19.2 1.8
1052 1 5.4 -19.8 1.2
1053 1 6.0 -19.2 1.2
1054 1 6.0 -19.8 1.8
1055 1 6.6 -19.2 1.8
1056 1 6.6 -19.8 1.2
1057 1 0.0 -20.4 1.2
1058 1 0.0 -21.0 1.8
1059 1 0.6 -20.4 1.8
1060 1 0.6 -21.0 1.2
1061 1 1.2 -20.4 1.2
1062 1 1.2 -21.0 1.8
1063 1 1.8 -20.4 1.8
1064 1 1.8 -21.0 1.2
1065 1 2.4 -20.4 1.2
1066 1 2.4 -21.0 1.8
1067 1 3.0 -20.4 1.8
1068 1 3.0 -21.0 1.2
1069 1 3.6 -20.4 1.2
1070 1 3.6 -21.0 1.8
1071 1 4.2 -20.4 1.8
1072 1 4.2 -21.0 1.2
1073 1 4.8 -20.4 1.2
1074 1 4.8 -21.0 1.8
1075 1 5.4 -20.4 1.8
1076 1 5.4 -21.0 1.2
1077 1 6.0 -20.4 1.2
1078 1 6.0 -21.0 1.8
1079 1 6.6 -20.4 1.8
1080 1 6.6 -21.0 1.2
1081 1 0.0 -21.6 1.2
1082 1 0.0 -22.2 1.8
1083 1 0.6 -21.6 1.8
1084 1 0.6 -22.2 1.2
1085 1 1.2 -21.6 1.2
1086 1 1.2 -22.2 1.8
1087 1 1.8 -21.6 1.8
1088 1 1.8 -22.2 1.2
1089 1 2.4 -21.6 1.2
1090 1 2.4 -22.2 1.8
1091 1 3.0 -21.6 1.8
1092 1 3.0 -22.2 1.2
1093 1 3.6 -21.6 1.2
1094 1 3.6 -22.2 1.8
1095 1 4.2 -21.6 1.8
1096 1 4.2 -22.2 1.2
1097 1 4.8 -21.6 1.2
1098 1 4.8 -22.2 1.8
1099 1 5.4 -21.6 1.8
1100 1 5.4 -22.2 1.2
1101 1 6.0 -21.6 1.2
1102 1 6.0 -22.2 1.8
1103 1 6.6 -21.6 1.8
1104 1 6.6 -22.2 1.2
1105 1 0.0 -22.8 1.2
1106 1 0.0 -23.4 1.8
1107 1 0.6 -22.8 1.8
1108 1 0.6 -23.4 1.2
1109 1 1.2 -22.8 1.2
1110 1 1.2 -23.4 1.8
1111 1 1.8 -22.8 1.8
1112 1 1.8 -23.4 1.2
1113 1 2.4 -22.8 1.2
1114 1 2.4 -23.4 1.8
1115 1 3.0 -22.8 1.8
1116 1 3.0 -23.4 1.2
1117 1 3.6 -22.8 1.2
1118 1 3.6 -23.4 1.8
1119 1 4.2 -22.8 1.8
1120 1 4.2 -23.4 1.2
1121 1 4.8 -22.8 1.2
1122 1 4.8 -23.4 1.8
1123 1 5.4 -22.8 1.8
1124 1 5.4 -23.4 1.2
1125 1 6.0 -22.8 1.2
1126 1 6.0 -23.4 1.8
1127 1 6.6 -22.8 1.8
1128 1 6.6 -23.4 1.2
1129 1 0.0 -24.0 1.2
1130 1 0.0 -24.6 1.8
1131 1 0.6 -24.0 1.8
1132 1 0.6 -24.6 1.2
1133 1 1.2 -24.0 1.2
1134 1 1.2 -24.6 1.8
1135 1 1.8 -24.0 1.8
1136 1 1.8 -24.6 1.2
1137 1 2.4 -24.0 1.2
1138 1 2.4 -24.6 1.8
1139 1 3.0 -24.0 1.8
1140 1 3.0 -24.6 1.2
1141 1 3.6 -24.0 1.2
1142 1 3.6 -24.6 1.8
1143 1 4.2 -24.0 1.8
1144 1 4.2 -24.6 1.2
1145 1 4.8 -24.0 1.2
1146 1 4.8 -24.6 1.8
1147 1 5.4 -24.0 1.8
1148 1 5.4 -24.6 1.2
1149 1 6.0 -24.0 1.2
1150 1 6.0 -24.6 1.8
1151 1 6.6 -24.0 1.8
1152 1 6.6 -24.6 1.2
1153 1 0.0 -25.2 1.2
1154 1 0.0 -25.8 1.8
1155 1 0.6 -25.2 1.8
1156 1 0.6 -25.8 1.2
1157 1 1.2 -25.2 1.2
1158 1 1.2 -25.8 1.8
1159 1 1.8 -25.2 1.8
1160 1 1.8 -25.8 1.2
1161 1 2.4 -25.2 1.2
1162 1 2.4 -25.8 1.8
1163 1 3.0 -25.2 1.8
1164 1 3.0 -25.8 1.2
1165 1 3.6 -25.2 1.2
1166 1 3.6 -25.8 1.8
1167 1 4.2 -25.2 1.8
1168 1 4.2 -25.8 1.2
1169 1 4.8 -25.2 1.2
1170 1 4.8 -25.8 1.8
1171 1 5.4 -25.2 1.8
1172 1 5.4 -25.8 1.2
1173 1 6.0 -25.2 1.2
1174 1 6.0 -25.8 1.8
1175 1 6.6 -25.2 1.8
1176 1 6.6 -25.8 1.2
1177 1 0.0 -26.4 1.2
1178 1 0.0 -27.0 1.8
1179 1 0.6 -26.4 1.8
1180 1 0.6 -27.0 1.2
1181 1 1.2 -26.4 1.2
1182 1 1.2 -27.0 1.8
1183 1 1.8 -26.4 1.8
1184 1 1.8 -27.0 1.2
1185 1 2.4 -26.4 1.2
1186 1 2.4 -27.0 1.8
1187 1 3.0 -26.4 1.8
1188 1 3.0 -27.0 1.2
1189 1 3.6 -26.4 1.2
1190 1 3.6 -27.0 1.8
1191 1 4.2 -26.4 1.8
1192 1 4.2 -27.0 1.2
1193 1 4.8 -26.4 1.2
1194 1 4.8 -27.0 1.8
1195 1 5.4 -26.4 1.8
1196 1 5.4 -27.0 1.2
1197 1 6.0 -26.4 1.2
1198 1 6.0 -27.0 1.8
1199 1 6.6 -26.4 1.8
1200 1 6.6 -27.0 1.2
1201 1 0.0 -27.6 1.2
1202 1 0.0 -28.2 1.8
1203 1 0.6 -27.6 1.8
1204 1 0.6 -28.2 1.2
1205 1 1.2 -27.6 1.2
1206 1 1.2 -28.2 1.8
1207 1 1.8 -27.6 1.8
1208 1 1.8 -28.2 1.2
1209 1 2.4 -27.6 1.2
1210 1 2.4 -28.2 1.8
1211 1 3.0 -27.6 1.8
1212 1 3.0 -28.2 1.2
1213 1 3.6 -27.6 1.2
1214 1 3.6 -28.2 1.8
1215 1 4.2 -27.6 1.8
1216 1 4.2 -28.2 1.2
1217 1 4.8 -27.6 1.2
1218 1 4.8 -28.2 1.8
1219 1 5.4 -27.6 1.8
1220 1 5.4 -28.2 1.2
1221 1 6.0 -27.6 1.2
1222 1 6.0 -28.2 1.8
1223 1 6.6 -27.6 1.8
1224 1 6.6 -28.2 1.2
1225 1 0.0 -28.8 1.2
1226 1 0.0 -29.4 1.8
1227 1 0.6 -28.8 1.8
1228 1 0.6 -29.4 1.2
1229 1 1.2 -28.8 1.2
1230 1 1.2 -29.4 1.8
1231 1 1.8 -28.8 1.8
1232 1 1.8 -29.4 1.2
1233 1 2.4 -28.8 1.2
1234 1 2.4 -29.4 1.8
1235 1 3.0 -28.8 1.8
1236 1 3.0 -29.4 1.2
1237 1 3.6 -28.8 1.2
1238 1 3.6 -29.4 1.8
1239 1 4.2 -28.8 1.8
1240 1 4.2 -29.4 1.2
1241 1 4.8 -28.8 1.2
1242 1 4.8 -29.4 1.8
1243 1 5.4 -28.8 1.8
1244 1 5.4 -29.4 1.2
1245 1 6.0 -28.8 1.2
1246 1 6.0 -29.4 1.8
1247 1 6.6 -28.8 1.8
1248 1 6.6 -29.4 1.2
1249 1 0.0 -30.0 1.2
1250 1 0.0 -30.6 1.8
1251 1 0.6 -30.0 1.8
1252 1 0.6 -30.6 1.2
1253 1 1.2 -30.0 1.2
1254 1 1.2 -30.6 1.8
1255 1 1.8 -30.0 1.8
1256 1 1.8 -30.6 1.2
1257 1 2.4 -30.0 1.2
1258 1 2.4 -30.6 1.8
1259 1 3.0 -30.0 1.8
1260 1 3.0 -30.6 1.2
1261 1 3.6 -30.0 1.2
1262 1 3.6 -30.6 1.8
1263 1 4.2 -30.0 1.8
1264 1 4.2 -30.6 1.2
1265 1 4.8 -30.0 1.2
1266 1 4.8 -30.6 1.8
1267 1 5.4 -30.0 1.8
1268 1 5.4 -30.6 1.2
1269 1 6.0 -30.0 1.2
1270 1 6.0 -30.6 1.8
1271 1 6.6 -30.0 1.8
1272 1 6.6 -30.6 1.2
1273 1 0.0 -31.2 1.2
1274 1 0.0 -31.8 1.8
1275 1 0.6 -31.2 1.8
1276 1 0.6 -31.8 1.2
1277 1 1.2 -31.2 1.2
1278 1 1.2 -31.8 1.8
1279 1 1.8 -31.2 1.8
1280 1 1.8 -31.8 1.2
1281 1 2.4 -31.2 1.2
1282 1 2.4 -31.8 1.8
1283 1 3.0 -31.2 1.8
1284 1 3.0 -31.8 1.2
1285 1 3.6 -31.2 1.2
1286 1 3.6 -31.8 1.8
1287 1 4.2 -31.2 1.8
1288 1 4.2 -31.8 1.2
1289 1 4.8 -31.2 1.2
1290 1 4.8 -31.8 1.8
1291 1 5.4 -31.2 1.8
1292 1 5.4 -31.8 1.2
1293 1 6.0 -31.2 1.2
1294 1 6.0 -31.8 1.8
1295 1 6.6 -31.2 1.8
1296 1 6.6 -31.8 1.2
1297 1 0.0 0.0 2.4
1298 1 0.0 -0.6 3.0
1299 1 0.6 0.0 3.0
1300 1 0.6 -0.6 2.4
1301 1 1.2 0.0 2.4
1302 1 1.2 -0.6 3.0
1303 1 1.8 0.0 3.0
1304 1 1.8 -0.6 2.4
1305 1 2.4 0.0 2.4
1306 1 2.4 -0.6 3.0
1307 1 3.0 0.0 3.0
1308 1 3.0 -0.6 2.4
1309 1 3.6 0.0 2.4
1310 1 3.6 -0.6 3.0
1311 1 4.2 0.0 3.0
1312 1 4.2 -0.6 2.4
1313 1 4.8 0.0 2.4
1314 1 4.8 -0.6 3.0
1315 1 5.4 0.0 3.0
1316 1 5.4 -0.6 2.4
1317 1 6.0 0.0 2.4
1318 1 6.0 -0.6 3.0
1319 1 6.6 0.0 3.0
1320 1 6.6 -0.6 2.4
1321 1 0.0 -1.2 2.4
1322 1 0.0 -1.8 3.0
1323 1 0.6 -1.2 3.0
1324 1 0.6 -1.8 2.4
1325 1 1.2 -1.2 2.4
1326 1 1.2 -1.8 3.0
1327 1 1.8 -1.2 3.0
1328 1 1.8 -1.8 2.4
1329 1 2.4 -1.2 2.4
1330 1 2.4 -1.8 3.0
1331 1 3.0 -1.2 3.0
1332 1 3.0 -1.8 2.4
1333 1 3.6 -1.2 2.4
1334 1 3.6 -1.8 3.0
1335 1 4.2 -1.2 3.0
1336 1 4.2 -1.8 2.4
1337 1 4.8 -1.2 2.4
1338 1 4.8 -1.8 3.0
1339 1 5.4 -1.2 3.0
1340 1 5.4 -1.8 2.4
1341 1 6.0 -1.2 2.4
1342 1 6.0 -1.8 3.0
1343 1 6.6 -1.2 3.0
1344 1 6.6 -1.8 2.4
1345 1 0.0 -2.4 2.4
1346 1 0.0 -3.0 3.0
1347 1 0.6 -2.4 3.0
1348 1 0.6 -3.0 2.4
1349 1 1.2 -2.4 2.4
1350 1 1.2 -3.0 3.0
1351 1 1.8 -2.4 3.0
1352 1 1.8 -3.0 2.4
1353 1 2.4 -2.4 2.4
1354 1 2.4 -3.0 3.0
1355 1 3.0 -2.4 3.0
1356 1 3.0 -3.0 2.4
1357 1 3.6 -2.4 2.4
1358 1 3.6 -3.0 3.0
1359 1 4.2 -2.4 3.0
1360 1 4.2 -3.0 2.4
1361 1 4.8 -2.4 2.4
1362 1 4.8 -3.0 3.0
1363 1 5.4 -2.4 3.0
1364 1 5.4 -3.0 2.4
1365 1 6.0 -2.4 2.4
1366 1 6.0 -3.0 3.0
1367 1 6.6 -2.4 3.0
1368 1 6.6 -3.0 2.4
1369 1 0.0 -3.6 2.4
1370 1 0.0 -4.2 3.0
1371 1 0.6 -3.6 3.0
1372 1 0.6 -4.2 2.4
1373 1 1.2 -3.6 2.4
1374 1 1.2 -4.2 3.0
1375 1 1.8 -3.6 3.0
1376 1 1.8 -4.2 2.4
1377 1 2.4 -3.6 2.4
1378 1 2.4 -4.2 3.0
1379 1 3.0 -3.6 3.0
1380 1 3.0 -4.2 2.4
1381 1 3.6 -3.6 2.4
1382 1 3.6 -4.2 3.0
1383 1 4.2 -3.6 3.0
1384 1 4.2 -4.2 2.4
1385 1 4.8 -3.6 2.4
1386 1 4.8 -4.2 3.0
1387 1 5.4 -3.6 3.0
1388 1 5.4 -4.2 2.4
1389 1 6.0 -3.6 2.4
1390 1 6.0 -4.2 3.0
1391 1 6.6 -3.6 3.0
1392 1 6.6 -4.2 2.4
1393 1 0.0 -4.8 2.4
1394 1 0.0 -5.4 3.0
1395 1 0.6 -4.8 3.0
1396 1 0.6 -5.4 2.4
1397 1 1.2 -4.8 2.4
1398 1 1.2 -5.4 3.0
1399 1 1.8 -4.8 3.0
1400 1 1.8 -5.4 2.4
1401 1 2.4 -4.8 2.4
1402 1 2.4 -5.4 3.0
1403 1 3.0 -4.8 3.0
1404 1 3.0 -5.4 2.4
1405 1 3.6 -4.8 2.4
1406 1 3.6 -5.4 3.0
1407 1 4.2 -4.8 3.0
1408 1 4.2 -5.4 2.4
1409 1 4.8 -4.8 2.4
1410 1 4.8 -5.4 3.0
1411 1 5.4 -4.8 3.0
1412 1 5.4 -5.4 2.4
1413 1 6.0 -4.8 2.4
1414 1 6.0 -5.4 3.0
1415 1 6.6 -4.8 3.0
1416 1 6.6 -5.4 2.4
1417 1 0.0 -6.0 2.4
1418 1 0.0 -6.6 3.0
1419 1 0.6 -6.0 3.0
1420 1 0.6 -6.6 2.4
1421 1 1.2 -6.0 2.4
1422 1 1.2 -6.6 3.0
1423 1 1.8 -6.0 3.0
1424 1 1.8 -6.6 2.4
1425 1 2.4 -6.0 2.4
1426 1 2.4 -6.6 3.0
1427 1 3.0 -6.0 3.0
1428 1 3.0 -6.6 2.4
1429 1 3.6 -6.0 2.4
1430 1 3.6 -6.6 3.0
1431 1 4.2 -6.0 3.0
1432 1 4.2 -6.6 2.4
1433 1 4.8 -6.0 2.4
1434 1 4.8 -6.6 3.0
1435 1 5.4 -6.0 3.0
1436 1 5.4 -6.6 2.4
1437 1 6.0 -6.0 2.4
1438 1 6.0 -6.6 3.0
1439 1 6.6 -6.0 3.0
1440 1 6.6 -6.6 2.4
1441 1 0.0 -7.2 2.4
1442 1 0.0 -7.8 3.0
1443 1 0.6 -7.2 3.0
1444 1 0.6 -7.8 2.4
1445 1 1.2 -7.2 2.4
1446 1 1.2 -7.8 3.0
1447 1 1.8 -7.2 3.0
1448 1 1.8 -7.8 2.4
1449 1 2.4 -7.2 2.4
1450 1 2.4 -7.8 3.0
1451 1 3.0 -7.2 3.0
1452 1 3.0 -7.8 2.4
1453 1 3.6 -7.2 2.4
1454 1 3.6 -7.8 3.0
1455 1 4.2 -7.2 3.0
1456 1 4.2 -7.8 2.4
1457 1 4.8 -7.2 2.4
1458 1 4.8 -7.8 3.0
1459 1 5.4 -7.2 3.0
1460 1 5.4 -7.8 2.4
1461 1 6.0 -7.2 2.4
1462 1 6.0 -7.8 3.0
1463 1 6.6 -7.2 3.0
1464 1 6.6 -7.8 2.4
1465 1 0.0 -8.4 2.4
1466 1 0.0 -9.0 3.0
1467 1 0.6 -8.4 3.0
1468 1 0.6 -9.0 2.4
1469 1 1.2 -8.4 2.4
1470 1 1.2 -9.0 3.0
1471 1 1.8 -8.4 3.0
1472 1 1.8 -9.0 2.4
1473 1 2.4 -8.4 2.4
1474 1 2.4 -9.0 3.0
1475 1 3.0 -8.4 3.0
1476 1 3.0 -9.0 2.4
1477 1 3.6 -8.4 2.4
1478 1 3.6 -9.0 3.0
1479 1 4.2 -8.4 3.0
1480 1 4.2 -9.0 2.4
1481 1 4.8 -8.4 2.4
1482 1 4.8 -9.0 3.0
1483 1 5.4 -8.4 3.0
1484 1 5.4 -9.0 2.4
1485 1 6.0 -8.4 2.4
1486 1 6.0 -9.0 3.0
1487 1 6.6 -8.4 3.0
1488 1 6.6 -9.0 2.4
1489 1 0.0 -9.6 2.4
1490 1 0.0 -10.2 3.0
1491 1 0.6 -9.6 3.0
1492 1 0.6 -10.2 2.4
1493 1 1.2 -9.6 2.4
1494 1 1.2 -10.2 3.0
1495 1 1.8 -9.6 3.0
1496 1 1.8 -10.2 2.4
1497 1 2.4 -9.6 2.4
1498 1 2.4 -10.2 3.0
1499 1 3.0 -9.6 3.0
1500 1 3.0 -10.2 2.4