LAMMPS Description

     21496  atoms
     11664  bonds
     5832  angles
     0  dihedrals
     0  impropers

     3  atom types
     1  bond types
     1  angle types

  0.0 54.3 xlo xhi
  0.0 54.3 ylo yhi
  0.0 100 zlo zhi

Masses

1 15.9994  # O
2 1.008  # H
3 28.0855

Atoms  # full

1 1 1 -1.1794 0.0 0.0 30.0
2 1 2 0.5897 0.759083 0.0 30.583117
3 1 2 0.5897 -0.759083 0.0 30.583117
4 2 1 -1.1794 3.0 0.0 30.0
5 2 2 0.5897 3.759083 0.0 30.583117
6 2 2 0.5897 2.240917 0.0 30.583117
7 3 1 -1.1794 6.0 0.0 30.0
8 3 2 0.5897 6.759083 0.0 30.583117
9 3 2 0.5897 5.240917 0.0 30.583117
10 4 1 -1.1794 9.0 0.0 30.0
11 4 2 0.5897 9.759083 0.0 30.583117
12 4 2 0.5897 8.240917 0.0 30.583117
13 5 1 -1.1794 12.0 0.0 30.0
14 5 2 0.5897 12.759083 0.0 30.583117
15 5 2 0.5897 11.240917 0.0 30.583117
16 6 1 -1.1794 15.0 0.0 30.0
17 6 2 0.5897 15.759083 0.0 30.583117
18 6 2 0.5897 14.240917 0.0 30.583117
19 7 1 -1.1794 18.0 0.0 30.0
20 7 2 0.5897 18.759083 0.0 30.583117
21 7 2 0.5897 17.240917 0.0 30.583117
22 8 1 -1.1794 21.0 0.0 30.0
23 8 2 0.5897 21.759083 0.0 30.583117
24 8 2 0.5897 20.240917 0.0 30.583117
25 9 1 -1.1794 24.0 0.0 30.0
26 9 2 0.5897 24.759083 0.0 30.583117
27 9 2 0.5897 23.240917 0.0 30.583117
28 10 1 -1.1794 27.0 0.0 30.0
29 10 2 0.5897 27.759083 0.0 30.583117
30 10 2 0.5897 26.240917 0.0 30.583117
31 11 1 -1.1794 30.0 0.0 30.0
32 11 2 0.5897 30.759083 0.0 30.583117
33 11 2 0.5897 29.240917 0.0 30.583117
34 12 1 -1.1794 33.0 0.0 30.0
35 12 2 0.5897 33.759083 0.0 30.583117
36 12 2 0.5897 32.240917 0.0 30.583117
37 13 1 -1.1794 36.0 0.0 30.0
38 13 2 0.5897 36.759083 0.0 30.583117
39 13 2 0.5897 35.240917 0.0 30.583117
40 14 1 -1.1794 39.0 0.0 30.0
41 14 2 0.5897 39.759083 0.0 30.583117
42 14 2 0.5897 38.240917 0.0 30.583117
43 15 1 -1.1794 42.0 0.0 30.0
44 15 2 0.5897 42.759083 0.0 30.583117
45 15 2 0.5897 41.240917 0.0 30.583117
46 16 1 -1.1794 45.0 0.0 30.0
47 16 2 0.5897 45.759083 0.0 30.583117
48 16 2 0.5897 44.240917 0.0 30.583117
49 17 1 -1.1794 48.0 0.0 30.0
50 17 2 0.5897 48.759083 0.0 30.583117
51 17 2 0.5897 47.240917 0.0 30.583117
52 18 1 -1.1794 51.0 0.0 30.0
53 18 2 0.5897 51.759083 0.0 30.583117
54 18 2 0.5897 50.240917 0.0 30.583117
55 19 1 -1.1794 0.0 3.0 30.0
56 19 2 0.5897 0.759083 3.0 30.583117
57 19 2 0.5897 -0.759083 3.0 30.583117
58 20 1 -1.1794 3.0 3.0 30.0
59 20 2 0.5897 3.759083 3.0 30.583117
60 20 2 0.5897 2.240917 3.0 30.583117
61 21 1 -1.1794 6.0 3.0 30.0
62 21 2 0.5897 6.759083 3.0 30.583117
63 21 2 0.5897 5.240917 3.0 30.583117
64 22 1 -1.1794 9.0 3.0 30.0
65 22 2 0.5897 9.759083 3.0 30.583117
66 22 2 0.5897 8.240917 3.0 30.583117
67 23 1 -1.1794 12.0 3.0 30.0
68 23 2 0.5897 12.759083 3.0 30.583117
69 23 2 0.5897 11.240917 3.0 30.583117
70 24 1 -1.1794 15.0 3.0 30.0
71 24 2 0.5897 15.759083 3.0 30.583117
72 24 2 0.5897 14.240917 3.0 30.583117
73 25 1 -1.1794 18.0 3.0 30.0
74 25 2 0.5897 18.759083 3.0 30.583117
75 25 2 0.5897 17.240917 3.0 30.583117
76 26 1 -1.1794 21.0 3.0 30.0
77 26 2 0.5897 21.759083 3.0 30.583117
78 26 2 0.5897 20.240917 3.0 30.583117
79 27 1 -1.1794 24.0 3.0 30.0
80 27 2 0.5897 24.759083 3.0 30.583117
81 27 2 0.5897 23.240917 3.0 30.583117
82 28 1 -1.1794 27.0 3.0 30.0
83 28 2 0.5897 27.759083 3.0 30.583117
84 28 2 0.5897 26.240917 3.0 30.583117
85 29 1 -1.1794 30.0 3.0 30.0
86 29 2 0.5897 30.759083 3.0 30.583117
87 29 2 0.5897 29.240917 3.0 30.583117
88 30 1 -1.1794 33.0 3.0 30.0
89 30 2 0.5897 33.759083 3.0 30.583117
90 30 2 0.5897 32.240917 3.0 30.583117
91 31 1 -1.1794 36.0 3.0 30.0
92 31 2 0.5897 36.759083 3.0 30.583117
93 31 2 0.5897 35.240917 3.0 30.583117
94 32 1 -1.1794 39.0 3.0 30.0
95 32 2 0.5897 39.759083 3.0 30.583117
96 32 2 0.5897 38.240917 3.0 30.583117
97 33 1 -1.1794 42.0 3.0 30.0
98 33 2 0.5897 42.759083 3.0 30.583117
99 33 2 0.5897 41.240917 3.0 30.583117
100 34 1 -1.1794 45.0 3.0 30.0
101 34 2 0.5897 45.759083 3.0 30.583117
102 34 2 0.5897 44.240917 3.0 30.583117
103 35 1 -1.1794 48.0 3.0 30.0
104 35 2 0.5897 48.759083 3.0 30.583117
105 35 2 0.5897 47.240917 3.0 30.583117
106 36 1 -1.1794 51.0 3.0 30.0
107 36 2 0.5897 51.759083 3.0 30.583117
108 36 2 0.5897 50.240917 3.0 30.583117
109 37 1 -1.1794 0.0 6.0 30.0
110 37 2 0.5897 0.759083 6.0 30.583117
111 37 2 0.5897 -0.759083 6.0 30.583117
112 38 1 -1.1794 3.0 6.0 30.0
113 38 2 0.5897 3.759083 6.0 30.583117
114 38 2 0.5897 2.240917 6.0 30.583117
115 39 1 -1.1794 6.0 6.0 30.0
116 39 2 0.5897 6.759083 6.0 30.583117
117 39 2 0.5897 5.240917 6.0 30.583117
118 40 1 -1.1794 9.0 6.0 30.0
119 40 2 0.5897 9.759083 6.0 30.583117
120 40 2 0.5897 8.240917 6.0 30.583117
121 41 1 -1.1794 12.0 6.0 30.0
122 41 2 0.5897 12.759083 6.0 30.583117
123 41 2 0.5897 11.240917 6.0 30.583117
124 42 1 -1.1794 15.0 6.0 30.0
125 42 2 0.5897 15.759083 6.0 30.583117
126 42 2 0.5897 14.240917 6.0 30.583117
127 43 1 -1.1794 18.0 6.0 30.0
128 43 2 0.5897 18.759083 6.0 30.583117
129 43 2 0.5897 17.240917 6.0 30.583117
130 44 1 -1.1794 21.0 6.0 30.0
131 44 2 0.5897 21.759083 6.0 30.583117
132 44 2 0.5897 20.240917 6.0 30.583117
133 45 1 -1.1794 24.0 6.0 30.0
134 45 2 0.5897 24.759083 6.0 30.583117
135 45 2 0.5897 23.240917 6.0 30.583117
136 46 1 -1.1794 27.0 6.0 30.0
137 46 2 0.5897 27.759083 6.0 30.583117
138 46 2 0.5897 26.240917 6.0 30.583117
139 47 1 -1.1794 30.0 6.0 30.0
140 47 2 0.5897 30.759083 6.0 30.583117
141 47 2 0.5897 29.240917 6.0 30.583117
142 48 1 -1.1794 33.0 6.0 30.0
143 48 2 0.5897 33.759083 6.0 30.583117
144 48 2 0.5897 32.240917 6.0 30.583117
145 49 1 -1.1794 36.0 6.0 30.0
146 49 2 0.5897 36.759083 6.0 30.583117
147 49 2 0.5897 35.240917 6.0 30.583117
148 50 1 -1.1794 39.0 6.0 30.0
149 50 2 0.5897 39.759083 6.0 30.583117
150 50 2 0.5897 38.240917 6.0 30.583117
151 51 1 -1.1794 42.0 6.0 30.0
152 51 2 0.5897 42.759083 6.0 30.583117
153 51 2 0.5897 41.240917 6.0 30.583117
154 52 1 -1.1794 45.0 6.0 30.0
155 52 2 0.5897 45.759083 6.0 30.583117
156 52 2 0.5897 44.240917 6.0 30.583117
157 53 1 -1.1794 48.0 6.0 30.0
158 53 2 0.5897 48.759083 6.0 30.583117
159 53 2 0.5897 47.240917 6.0 30.583117
160 54 1 -1.1794 51.0 6.0 30.0
161 54 2 0.5897 51.759083 6.0 30.583117
162 54 2 0.5897 50.240917 6.0 30.583117
163 55 1 -1.1794 0.0 9.0 30.0
164 55 2 0.5897 0.759083 9.0 30.583117
165 55 2 0.5897 -0.759083 9.0 30.583117
166 56 1 -1.1794 3.0 9.0 30.0
167 56 2 0.5897 3.759083 9.0 30.583117
168 56 2 0.5897 2.240917 9.0 30.583117
169 57 1 -1.1794 6.0 9.0 30.0
170 57 2 0.5897 6.759083 9.0 30.583117
171 57 2 0.5897 5.240917 9.0 30.583117
172 58 1 -1.1794 9.0 9.0 30.0
173 58 2 0.5897 9.759083 9.0 30.583117
174 58 2 0.5897 8.240917 9.0 30.583117
175 59 1 -1.1794 12.0 9.0 30.0
176 59 2 0.5897 12.759083 9.0 30.583117
177 59 2 0.5897 11.240917 9.0 30.583117
178 60 1 -1.1794 15.0 9.0 30.0
179 60 2 0.5897 15.759083 9.0 30.583117
180 60 2 0.5897 14.240917 9.0 30.583117
181 61 1 -1.1794 18.0 9.0 30.0
182 61 2 0.5897 18.759083 9.0 30.583117
183 61 2 0.5897 17.240917 9.0 30.583117
184 62 1 -1.1794 21.0 9.0 30.0
185 62 2 0.5897 21.759083 9.0 30.583117
186 62 2 0.5897 20.240917 9.0 30.583117
187 63 1 -1.1794 24.0 9.0 30.0
188 63 2 0.5897 24.759083 9.0 30.583117
189 63 2 0.5897 23.240917 9.0 30.583117
190 64 1 -1.1794 27.0 9.0 30.0
191 64 2 0.5897 27.759083 9.0 30.583117
192 64 2 0.5897 26.240917 9.0 30.583117
193 65 1 -1.1794 30.0 9.0 30.0
194 65 2 0.5897 30.759083 9.0 30.583117
195 65 2 0.5897 29.240917 9.0 30.583117
196 66 1 -1.1794 33.0 9.0 30.0
197 66 2 0.5897 33.759083 9.0 30.583117
198 66 2 0.5897 32.240917 9.0 30.583117
199 67 1 -1.1794 36.0 9.0 30.0
200 67 2 0.5897 36.759083 9.0 30.583117
201 67 2 0.5897 35.240917 9.0 30.583117
202 68 1 -1.1794 39.0 9.0 30.0
203 68 2 0.5897 39.759083 9.0 30.583117
204 68 2 0.5897 38.240917 9.0 30.583117
205 69 1 -1.1794 42.0 9.0 30.0
206 69 2 0.5897 42.759083 9.0 30.583117
207 69 2 0.5897 41.240917 9.0 30.583117
208 70 1 -1.1794 45.0 9.0 30.0
209 70 2 0.5897 45.759083 9.0 30.583117
210 70 2 0.5897 44.240917 9.0 30.583117
211 71 1 -1.1794 48.0 9.0 30.0
212 71 2 0.5897 48.759083 9.0 30.583117
213 71 2 0.5897 47.240917 9.0 30.583117
214 72 1 -1.1794 51.0 9.0 30.0
215 72 2 0.5897 51.759083 9.0 30.583117
216 72 2 0.5897 50.240917 9.0 30.583117
217 73 1 -1.1794 0.0 12.0 30.0
218 73 2 0.5897 0.759083 12.0 30.583117
219 73 2 0.5897 -0.759083 12.0 30.583117
220 74 1 -1.1794 3.0 12.0 30.0
221 74 2 0.5897 3.759083 12.0 30.583117
222 74 2 0.5897 2.240917 12.0 30.583117
223 75 1 -1.1794 6.0 12.0 30.0
224 75 2 0.5897 6.759083 12.0 30.583117
225 75 2 0.5897 5.240917 12.0 30.583117
226 76 1 -1.1794 9.0 12.0 30.0
227 76 2 0.5897 9.759083 12.0 30.583117
228 76 2 0.5897 8.240917 12.0 30.583117
229 77 1 -1.1794 12.0 12.0 30.0
230 77 2 0.5897 12.759083 12.0 30.583117
231 77 2 0.5897 11.240917 12.0 30.583117
232 78 1 -1.1794 15.0 12.0 30.0
233 78 2 0.5897 15.759083 12.0 30.583117
234 78 2 0.5897 14.240917 12.0 30.583117
235 79 1 -1.1794 18.0 12.0 30.0
236 79 2 0.5897 18.759083 12.0 30.583117
237 79 2 0.5897 17.240917 12.0 30.583117
238 80 1 -1.1794 21.0 12.0 30.0
239 80 2 0.5897 21.759083 12.0 30.583117
240 80 2 0.5897 20.240917 12.0 30.583117
241 81 1 -1.1794 24.0 12.0 30.0
242 81 2 0.5897 24.759083 12.0 30.583117
243 81 2 0.5897 23.240917 12.0 30.583117
244 82 1 -1.1794 27.0 12.0 30.0
245 82 2 0.5897 27.759083 12.0 30.583117
246 82 2 0.5897 26.240917 12.0 30.583117
247 83 1 -1.1794 30.0 12.0 30.0
248 83 2 0.5897 30.759083 12.0 30.583117
249 83 2 0.5897 29.240917 12.0 30.583117
250 84 1 -1.1794 33.0 12.0 30.0
251 84 2 0.5897 33.759083 12.0 30.583117
252 84 2 0.5897 32.240917 12.0 30.583117
253 85 1 -1.1794 36.0 12.0 30.0
254 85 2 0.5897 36.759083 12.0 30.583117
255 85 2 0.5897 35.240917 12.0 30.583117
256 86 1 -1.1794 39.0 12.0 30.0
257 86 2 0.5897 39.759083 12.0 30.583117
258 86 2 0.5897 38.240917 12.0 30.583117
259 87 1 -1.1794 42.0 12.0 30.0
260 87 2 0.5897 42.759083 12.0 30.583117
261 87 2 0.5897 41.240917 12.0 30.583117
262 88 1 -1.1794 45.0 12.0 30.0
263 88 2 0.5897 45.759083 12.0 30.583117
264 88 2 0.5897 44.240917 12.0 30.583117
265 89 1 -1.1794 48.0 12.0 30.0
266 89 2 0.5897 48.759083 12.0 30.583117
267 89 2 0.5897 47.240917 12.0 30.583117
268 90 1 -1.1794 51.0 12.0 30.0
269 90 2 0.5897 51.759083 12.0 30.583117
270 90 2 0.5897 50.240917 12.0 30.583117
271 91 1 -1.1794 0.0 15.0 30.0
272 91 2 0.5897 0.759083 15.0 30.583117
273 91 2 0.5897 -0.759083 15.0 30.583117
274 92 1 -1.1794 3.0 15.0 30.0
275 92 2 0.5897 3.759083 15.0 30.583117
276 92 2 0.5897 2.240917 15.0 30.583117
277 93 1 -1.1794 6.0 15.0 30.0
278 93 2 0.5897 6.759083 15.0 30.583117
279 93 2 0.5897 5.240917 15.0 30.583117
280 94 1 -1.1794 9.0 15.0 30.0
281 94 2 0.5897 9.759083 15.0 30.583117
282 94 2 0.5897 8.240917 15.0 30.583117
283 95 1 -1.1794 12.0 15.0 30.0
284 95 2 0.5897 12.759083 15.0 30.583117
285 95 2 0.5897 11.240917 15.0 30.583117
286 96 1 -1.1794 15.0 15.0 30.0
287 96 2 0.5897 15.759083 15.0 30.583117
288 96 2 0.5897 14.240917 15.0 30.583117
289 97 1 -1.1794 18.0 15.0 30.0
290 97 2 0.5897 18.759083 15.0 30.583117
291 97 2 0.5897 17.240917 15.0 30.583117
292 98 1 -1.1794 21.0 15.0 30.0
293 98 2 0.5897 21.759083 15.0 30.583117
294 98 2 0.5897 20.240917 15.0 30.583117
295 99 1 -1.1794 24.0 15.0 30.0
296 99 2 0.5897 24.759083 15.0 30.583117
297 99 2 0.5897 23.240917 15.0 30.583117
298 100 1 -1.1794 27.0 15.0 30.0
299 100 2 0.5897 27.759083 15.0 30.583117
300 100 2 0.5897 26.240917 15.0 30.583117
301 101 1 -1.1794 30.0 15.0 30.0
302 101 2 0.5897 30.759083 15.0 30.583117
303 101 2 0.5897 29.240917 15.0 30.583117
304 102 1 -1.1794 33.0 15.0 30.0
305 102 2 0.5897 33.759083 15.0 30.583117
306 102 2 0.5897 32.240917 15.0 30.583117
307 103 1 -1.1794 36.0 15.0 30.0
308 103 2 0.5897 36.759083 15.0 30.583117
309 103 2 0.5897 35.240917 15.0 30.583117
310 104 1 -1.1794 39.0 15.0 30.0
311 104 2 0.5897 39.759083 15.0 30.583117
312 104 2 0.5897 38.240917 15.0 30.583117
313 105 1 -1.1794 42.0 15.0 30.0
314 105 2 0.5897 42.759083 15.0 30.583117
315 105 2 0.5897 41.240917 15.0 30.583117
316 106 1 -1.1794 45.0 15.0 30.0
317 106 2 0.5897 45.759083 15.0 30.583117
318 106 2 0.5897 44.240917 15.0 30.583117
319 107 1 -1.1794 48.0 15.0 30.0
320 107 2 0.5897 48.759083 15.0 30.583117
321 107 2 0.5897 47.240917 15.0 30.583117
322 108 1 -1.1794 51.0 15.0 30.0
323 108 2 0.5897 51.759083 15.0 30.583117
324 108 2 0.5897 50.240917 15.0 30.583117
325 109 1 -1.1794 0.0 18.0 30.0
326 109 2 0.5897 0.759083 18.0 30.583117
327 109 2 0.5897 -0.759083 18.0 30.583117
328 110 1 -1.1794 3.0 18.0 30.0
329 110 2 0.5897 3.759083 18.0 30.583117
330 110 2 0.5897 2.240917 18.0 30.583117
331 111 1 -1.1794 6.0 18.0 30.0
332 111 2 0.5897 6.759083 18.0 30.583117
333 111 2 0.5897 5.240917 18.0 30.583117
334 112 1 -1.1794 9.0 18.0 30.0
335 112 2 0.5897 9.759083 18.0 30.583117
336 112 2 0.5897 8.240917 18.0 30.583117
337 113 1 -1.1794 12.0 18.0 30.0
338 113 2 0.5897 12.759083 18.0 30.583117
339 113 2 0.5897 11.240917 18.0 30.583117
340 114 1 -1.1794 15.0 18.0 30.0
341 114 2 0.5897 15.759083 18.0 30.583117
342 114 2 0.5897 14.240917 18.0 30.583117
343 115 1 -1.1794 18.0 18.0 30.0
344 115 2 0.5897 18.759083 18.0 30.583117
345 115 2 0.5897 17.240917 18.0 30.583117
346 116 1 -1.1794 21.0 18.0 30.0
347 116 2 0.5897 21.759083 18.0 30.583117
348 116 2 0.5897 20.240917 18.0 30.583117
349 117 1 -1.1794 24.0 18.0 30.0
350 117 2 0.5897 24.759083 18.0 30.583117
351 117 2 0.5897 23.240917 18.0 30.583117
352 118 1 -1.1794 27.0 18.0 30.0
353 118 2 0.5897 27.759083 18.0 30.583117
354 118 2 0.5897 26.240917 18.0 30.583117
355 119 1 -1.1794 30.0 18.0 30.0
356 119 2 0.5897 30.759083 18.0 30.583117
357 119 2 0.5897 29.240917 18.0 30.583117
358 120 1 -1.1794 33.0 18.0 30.0
359 120 2 0.5897 33.759083 18.0 30.583117
360 120 2 0.5897 32.240917 18.0 30.583117
361 121 1 -1.1794 36.0 18.0 30.0
362 121 2 0.5897 36.759083 18.0 30.583117
363 121 2 0.5897 35.240917 18.0 30.583117
364 122 1 -1.1794 39.0 18.0 30.0
365 122 2 0.5897 39.759083 18.0 30.583117
366 122 2 0.5897 38.240917 18.0 30.583117
367 123 1 -1.1794 42.0 18.0 30.0
368 123 2 0.5897 42.759083 18.0 30.583117
369 123 2 0.5897 41.240917 18.0 30.583117
370 124 1 -1.1794 45.0 18.0 30.0
371 124 2 0.5897 45.759083 18.0 30.583117
372 124 2 0.5897 44.240917 18.0 30.583117
373 125 1 -1.1794 48.0 18.0 30.0
374 125 2 0.5897 48.759083 18.0 30.583117
375 125 2 0.5897 47.240917 18.0 30.583117
376 126 1 -1.1794 51.0 18.0 30.0
377 126 2 0.5897 51.759083 18.0 30.583117
378 126 2 0.5897 50.240917 18.0 30.583117
379 127 1 -1.1794 0.0 21.0 30.0
380 127 2 0.5897 0.759083 21.0 30.583117
381 127 2 0.5897 -0.759083 21.0 30.583117
382 128 1 -1.1794 3.0 21.0 30.0
383 128 2 0.5897 3.759083 21.0 30.583117
384 128 2 0.5897 2.240917 21.0 30.583117
385 129 1 -1.1794 6.0 21.0 30.0
386 129 2 0.5897 6.759083 21.0 30.583117
387 129 2 0.5897 5.240917 21.0 30.583117
388 130 1 -1.1794 9.0 21.0 30.0
389 130 2 0.5897 9.759083 21.0 30.583117
390 130 2 0.5897 8.240917 21.0 30.583117
391 131 1 -1.1794 12.0 21.0 30.0
392 131 2 0.5897 12.759083 21.0 30.583117
393 131 2 0.5897 11.240917 21.0 30.583117
394 132 1 -1.1794 15.0 21.0 30.0
395 132 2 0.5897 15.759083 21.0 30.583117
396 132 2 0.5897 14.240917 21.0 30.583117
397 133 1 -1.1794 18.0 21.0 30.0
398 133 2 0.5897 18.759083 21.0 30.583117
399 133 2 0.5897 17.240917 21.0 30.583117
400 134 1 -1.1794 21.0 21.0 30.0
401 134 2 0.5897 21.759083 21.0 30.583117
402 134 2 0.5897 20.240917 21.0 30.583117
403 135 1 -1.1794 24.0 21.0 30.0
404 135 2 0.5897 24.759083 21.0 30.583117
405 135 2 0.5897 23.240917 21.0 30.583117
406 136 1 -1.1794 27.0 21.0 30.0
407 136 2 0.5897 27.759083 21.0 30.583117
408 136 2 0.5897 26.240917 21.0 30.583117
409 137 1 -1.1794 30.0 21.0 30.0
410 137 2 0.5897 30.759083 21.0 30.583117
411 137 2 0.5897 29.240917 21.0 30.583117
412 138 1 -1.1794 33.0 21.0 30.0
413 138 2 0.5897 33.759083 21.0 30.583117
414 138 2 0.5897 32.240917 21.0 30.583117
415 139 1 -1.1794 36.0 21.0 30.0
416 139 2 0.5897 36.759083 21.0 30.583117
417 139 2 0.5897 35.240917 21.0 30.583117
418 140 1 -1.1794 39.0 21.0 30.0
419 140 2 0.5897 39.759083 21.0 30.583117
420 140 2 0.5897 38.240917 21.0 30.583117
421 141 1 -1.1794 42.0 21.0 30.0
422 141 2 0.5897 42.759083 21.0 30.583117
423 141 2 0.5897 41.240917 21.0 30.583117
424 142 1 -1.1794 45.0 21.0 30.0
425 142 2 0.5897 45.759083 21.0 30.583117
426 142 2 0.5897 44.240917 21.0 30.583117
427 143 1 -1.1794 48.0 21.0 30.0
428 143 2 0.5897 48.759083 21.0 30.583117
429 143 2 0.5897 47.240917 21.0 30.583117
430 144 1 -1.1794 51.0 21.0 30.0
431 144 2 0.5897 51.759083 21.0 30.583117
432 144 2 0.5897 50.240917 21.0 30.583117
433 145 1 -1.1794 0.0 24.0 30.0
434 145 2 0.5897 0.759083 24.0 30.583117
435 145 2 0.5897 -0.759083 24.0 30.583117
436 146 1 -1.1794 3.0 24.0 30.0
437 146 2 0.5897 3.759083 24.0 30.583117
438 146 2 0.5897 2.240917 24.0 30.583117
439 147 1 -1.1794 6.0 24.0 30.0
440 147 2 0.5897 6.759083 24.0 30.583117
441 147 2 0.5897 5.240917 24.0 30.583117
442 148 1 -1.1794 9.0 24.0 30.0
443 148 2 0.5897 9.759083 24.0 30.583117
444 148 2 0.5897 8.240917 24.0 30.583117
445 149 1 -1.1794 12.0 24.0 30.0
446 149 2 0.5897 12.759083 24.0 30.583117
447 149 2 0.5897 11.240917 24.0 30.583117
448 150 1 -1.1794 15.0 24.0 30.0
449 150 2 0.5897 15.759083 24.0 30.583117
450 150 2 0.5897 14.240917 24.0 30.583117
451 151 1 -1.1794 18.0 24.0 30.0
452 151 2 0.5897 18.759083 24.0 30.583117
453 151 2 0.5897 17.240917 24.0 30.583117
454 152 1 -1.1794 21.0 24.0 30.0
455 152 2 0.5897 21.759083 24.0 30.583117
456 152 2 0.5897 20.240917 24.0 30.583117
457 153 1 -1.1794 24.0 24.0 30.0
458 153 2 0.5897 24.759083 24.0 30.583117
459 153 2 0.5897 23.240917 24.0 30.583117
460 154 1 -1.1794 27.0 24.0 30.0
461 154 2 0.5897 27.759083 24.0 30.583117
462 154 2 0.5897 26.240917 24.0 30.583117
463 155 1 -1.1794 30.0 24.0 30.0
464 155 2 0.5897 30.759083 24.0 30.583117
465 155 2 0.5897 29.240917 24.0 30.583117
466 156 1 -1.1794 33.0 24.0 30.0
467 156 2 0.5897 33.759083 24.0 30.583117
468 156 2 0.5897 32.240917 24.0 30.583117
469 157 1 -1.1794 36.0 24.0 30.0
470 157 2 0.5897 36.759083 24.0 30.583117
471 157 2 0.5897 35.240917 24.0 30.583117
472 158 1 -1.1794 39.0 24.0 30.0
473 158 2 0.5897 39.759083 24.0 30.583117
474 158 2 0.5897 38.240917 24.0 30.583117
475 159 1 -1.1794 42.0 24.0 30.0
476 159 2 0.5897 42.759083 24.0 30.583117
477 159 2 0.5897 41.240917 24.0 30.583117
478 160 1 -1.1794 45.0 24.0 30.0
479 160 2 0.5897 45.759083 24.0 30.583117
480 160 2 0.5897 44.240917 24.0 30.583117
481 161 1 -1.1794 48.0 24.0 30.0
482 161 2 0.5897 48.759083 24.0 30.583117
483 161 2 0.5897 47.240917 24.0 30.583117
484 162 1 -1.1794 51.0 24.0 30.0
485 162 2 0.5897 51.759083 24.0 30.583117
486 162 2 0.5897 50.240917 24.0 30.583117
487 163 1 -1.1794 0.0 27.0 30.0
488 163 2 0.5897 0.759083 27.0 30.583117
489 163 2 0.5897 -0.759083 27.0 30.583117
490 164 1 -1.1794 3.0 27.0 30.0
491 164 2 0.5897 3.759083 27.0 30.583117
492 164 2 0.5897 2.240917 27.0 30.583117
493 165 1 -1.1794 6.0 27.0 30.0
494 165 2 0.5897 6.759083 27.0 30.583117
495 165 2 0.5897 5.240917 27.0 30.583117
496 166 1 -1.1794 9.0 27.0 30.0
497 166 2 0.5897 9.759083 27.0 30.583117
498 166 2 0.5897 8.240917 27.0 30.583117
499 167 1 -1.1794 12.0 27.0 30.0
500 167 2 0.5897 12.759083 27.0 30.583117
501 167 2 0.5897 11.240917 27.0 30.583117
502 168 1 -1.1794 15.0 27.0 30.0
503 168 2 0.5897 15.759083 27.0 30.583117
504 168 2 0.5897 14.240917 27.0 30.583117
505 169 1 -1.1794 18.0 27.0 30.0
506 169 2 0.5897 18.759083 27.0 30.583117
507 169 2 0.5897 17.240917 27.0 30.583117
508 170 1 -1.1794 21.0 27.0 30.0
509 170 2 0.5897 21.759083 27.0 30.583117
510 170 2 0.5897 20.240917 27.0 30.583117
511 171 1 -1.1794 24.0 27.0 30.0
512 171 2 0.5897 24.759083 27.0 30.583117
513 171 2 0.5897 23.240917 27.0 30.583117
514 172 1 -1.1794 27.0 27.0 30.0
515 172 2 0.5897 27.759083 27.0 30.583117
516 172 2 0.5897 26.240917 27.0 30.583117
517 173 1 -1.1794 30.0 27.0 30.0
518 173 2 0.5897 30.759083 27.0 30.583117
519 173 2 0.5897 29.240917 27.0 30.583117
520 174 1 -1.1794 33.0 27.0 30.0
521 174 2 0.5897 33.759083 27.0 30.583117
522 174 2 0.5897 32.240917 27.0 30.583117
523 175 1 -1.1794 36.0 27.0 30.0
524 175 2 0.5897 36.759083 27.0 30.583117
525 175 2 0.5897 35.240917 27.0 30.583117
526 176 1 -1.1794 39.0 27.0 30.0
527 176 2 0.5897 39.759083 27.0 30.583117
528 176 2 0.5897 38.240917 27.0 30.583117
529 177 1 -1.1794 42.0 27.0 30.0
530 177 2 0.5897 42.759083 27.0 30.583117
531 177 2 0.5897 41.240917 27.0 30.583117
532 178 1 -1.1794 45.0 27.0 30.0
533 178 2 0.5897 45.759083 27.0 30.583117
534 178 2 0.5897 44.240917 27.0 30.583117
535 179 1 -1.1794 48.0 27.0 30.0
536 179 2 0.5897 48.759083 27.0 30.583117
537 179 2 0.5897 47.240917 27.0 30.583117
538 180 1 -1.1794 51.0 27.0 30.0
539 180 2 0.5897 51.759083 27.0 30.583117
540 180 2 0.5897 50.240917 27.0 30.583117
541 181 1 -1.1794 0.0 30.0 30.0
542 181 2 0.5897 0.759083 30.0 30.583117
543 181 2 0.5897 -0.759083 30.0 30.583117
544 182 1 -1.1794 3.0 30.0 30.0
545 182 2 0.5897 3.759083 30.0 30.583117
546 182 2 0.5897 2.240917 30.0 30.583117
547 183 1 -1.1794 6.0 30.0 30.0
548 183 2 0.5897 6.759083 30.0 30.583117
549 183 2 0.5897 5.240917 30.0 30.583117
550 184 1 -1.1794 9.0 30.0 30.0
551 184 2 0.5897 9.759083 30.0 30.583117
552 184 2 0.5897 8.240917 30.0 30.583117
553 185 1 -1.1794 12.0 30.0 30.0
554 185 2 0.5897 12.759083 30.0 30.583117
555 185 2 0.5897 11.240917 30.0 30.583117
556 186 1 -1.1794 15.0 30.0 30.0
557 186 2 0.5897 15.759083 30.0 30.583117
558 186 2 0.5897 14.240917 30.0 30.583117
559 187 1 -1.1794 18.0 30.0 30.0
560 187 2 0.5897 18.759083 30.0 30.583117
561 187 2 0.5897 17.240917 30.0 30.583117
562 188 1 -1.1794 21.0 30.0 30.0
563 188 2 0.5897 21.759083 30.0 30.583117
564 188 2 0.5897 20.240917 30.0 30.583117
565 189 1 -1.1794 24.0 30.0 30.0
566 189 2 0.5897 24.759083 30.0 30.583117
567 189 2 0.5897 23.240917 30.0 30.583117
568 190 1 -1.1794 27.0 30.0 30.0
569 190 2 0.5897 27.759083 30.0 30.583117
570 190 2 0.5897 26.240917 30.0 30.583117
571 191 1 -1.1794 30.0 30.0 30.0
572 191 2 0.5897 30.759083 30.0 30.583117
573 191 2 0.5897 29.240917 30.0 30.583117
574 192 1 -1.1794 33.0 30.0 30.0
575 192 2 0.5897 33.759083 30.0 30.583117
576 192 2 0.5897 32.240917 30.0 30.583117
577 193 1 -1.1794 36.0 30.0 30.0
578 193 2 0.5897 36.759083 30.0 30.583117
579 193 2 0.5897 35.240917 30.0 30.583117
580 194 1 -1.1794 39.0 30.0 30.0
581 194 2 0.5897 39.759083 30.0 30.583117
582 194 2 0.5897 38.240917 30.0 30.583117
583 195 1 -1.1794 42.0 30.0 30.0
584 195 2 0.5897 42.759083 30.0 30.583117
585 195 2 0.5897 41.240917 30.0 30.583117
586 196 1 -1.1794 45.0 30.0 30.0
587 196 2 0.5897 45.759083 30.0 30.583117
588 196 2 0.5897 44.240917 30.0 30.583117
589 197 1 -1.1794 48.0 30.0 30.0
590 197 2 0.5897 48.759083 30.0 30.583117
591 197 2 0.5897 47.240917 30.0 30.583117
592 198 1 -1.1794 51.0 30.0 30.0
593 198 2 0.5897 51.759083 30.0 30.583117
594 198 2 0.5897 50.240917 30.0 30.583117
595 199 1 -1.1794 0.0 33.0 30.0
596 199 2 0.5897 0.759083 33.0 30.583117
597 199 2 0.5897 -0.759083 33.0 30.583117
598 200 1 -1.1794 3.0 33.0 30.0
599 200 2 0.5897 3.759083 33.0 30.583117
600 200 2 0.5897 2.240917 33.0 30.583117
601 201 1 -1.1794 6.0 33.0 30.0
602 201 2 0.5897 6.759083 33.0 30.583117
603 201 2 0.5897 5.240917 33.0 30.583117
604 202 1 -1.1794 9.0 33.0 30.0
605 202 2 0.5897 9.759083 33.0 30.583117
606 202 2 0.5897 8.240917 33.0 30.583117
607 203 1 -1.1794 12.0 33.0 30.0
608 203 2 0.5897 12.759083 33.0 30.583117
609 203 2 0.5897 11.240917 33.0 30.583117
610 204 1 -1.1794 15.0 33.0 30.0
611 204 2 0.5897 15.759083 33.0 30.583117
612 204 2 0.5897 14.240917 33.0 30.583117
613 205 1 -1.1794 18.0 33.0 30.0
614 205 2 0.5897 18.759083 33.0 30.583117
615 205 2 0.5897 17.240917 33.0 30.583117
616 206 1 -1.1794 21.0 33.0 30.0
617 206 2 0.5897 21.759083 33.0 30.583117
618 206 2 0.5897 20.240917 33.0 30.583117
619 207 1 -1.1794 24.0 33.0 30.0
620 207 2 0.5897 24.759083 33.0 30.583117
621 207 2 0.5897 23.240917 33.0 30.583117
622 208 1 -1.1794 27.0 33.0 30.0
623 208 2 0.5897 27.759083 33.0 30.583117
624 208 2 0.5897 26.240917 33.0 30.583117
625 209 1 -1.1794 30.0 33.0 30.0
626 209 2 0.5897 30.759083 33.0 30.583117
627 209 2 0.5897 29.240917 33.0 30.583117
628 210 1 -1.1794 33.0 33.0 30.0
629 210 2 0.5897 33.759083 33.0 30.583117
630 210 2 0.5897 32.240917 33.0 30.583117
631 211 1 -1.1794 36.0 33.0 30.0
632 211 2 0.5897 36.759083 33.0 30.583117
633 211 2 0.5897 35.240917 33.0 30.583117
634 212 1 -1.1794 39.0 33.0 30.0
635 212 2 0.5897 39.759083 33.0 30.583117
636 212 2 0.5897 38.240917 33.0 30.583117
637 213 1 -1.1794 42.0 33.0 30.0
638 213 2 0.5897 42.759083 33.0 30.583117
639 213 2 0.5897 41.240917 33.0 30.583117
640 214 1 -1.1794 45.0 33.0 30.0
641 214 2 0.5897 45.759083 33.0 30.583117
642 214 2 0.5897 44.240917 33.0 30.583117
643 215 1 -1.1794 48.0 33.0 30.0
644 215 2 0.5897 48.759083 33.0 30.583117
645 215 2 0.5897 47.240917 33.0 30.583117
646 216 1 -1.1794 51.0 33.0 30.0
647 216 2 0.5897 51.759083 33.0 30.583117
648 216 2 0.5897 50.240917 33.0 30.583117
649 217 1 -1.1794 0.0 36.0 30.0
650 217 2 0.5897 0.759083 36.0 30.583117
651 217 2 0.5897 -0.759083 36.0 30.583117
652 218 1 -1.1794 3.0 36.0 30.0
653 218 2 0.5897 3.759083 36.0 30.583117
654 218 2 0.5897 2.240917 36.0 30.583117
655 219 1 -1.1794 6.0 36.0 30.0
656 219 2 0.5897 6.759083 36.0 30.583117
657 219 2 0.5897 5.240917 36.0 30.583117
658 220 1 -1.1794 9.0 36.0 30.0
659 220 2 0.5897 9.759083 36.0 30.583117
660 220 2 0.5897 8.240917 36.0 30.583117
661 221 1 -1.1794 12.0 36.0 30.0
662 221 2 0.5897 12.759083 36.0 30.583117
663 221 2 0.5897 11.240917 36.0 30.583117
664 222 1 -1.1794 15.0 36.0 30.0
665 222 2 0.5897 15.759083 36.0 30.583117
666 222 2 0.5897 14.240917 36.0 30.583117
667 223 1 -1.1794 18.0 36.0 30.0
668 223 2 0.5897 18.759083 36.0 30.583117
669 223 2 0.5897 17.240917 36.0 30.583117
670 224 1 -1.1794 21.0 36.0 30.0
671 224 2 0.5897 21.759083 36.0 30.583117
672 224 2 0.5897 20.240917 36.0 30.583117
673 225 1 -1.1794 24.0 36.0 30.0
674 225 2 0.5897 24.759083 36.0 30.583117
675 225 2 0.5897 23.240917 36.0 30.583117
676 226 1 -1.1794 27.0 36.0 30.0
677 226 2 0.5897 27.759083 36.0 30.583117
678 226 2 0.5897 26.240917 36.0 30.583117
679 227 1 -1.1794 30.0 36.0 30.0
680 227 2 0.5897 30.759083 36.0 30.583117
681 227 2 0.5897 29.240917 36.0 30.583117
682 228 1 -1.1794 33.0 36.0 30.0
683 228 2 0.5897 33.759083 36.0 30.583117
684 228 2 0.5897 32.240917 36.0 30.583117
685 229 1 -1.1794 36.0 36.0 30.0
686 229 2 0.5897 36.759083 36.0 30.583117
687 229 2 0.5897 35.240917 36.0 30.583117
688 230 1 -1.1794 39.0 36.0 30.0
689 230 2 0.5897 39.759083 36.0 30.583117
690 230 2 0.5897 38.240917 36.0 30.583117
691 231 1 -1.1794 42.0 36.0 30.0
692 231 2 0.5897 42.759083 36.0 30.583117
693 231 2 0.5897 41.240917 36.0 30.583117
694 232 1 -1.1794 45.0 36.0 30.0
695 232 2 0.5897 45.759083 36.0 30.583117
696 232 2 0.5897 44.240917 36.0 30.583117
697 233 1 -1.1794 48.0 36.0 30.0
698 233 2 0.5897 48.759083 36.0 30.583117
699 233 2 0.5897 47.240917 36.0 30.583117
700 234 1 -1.1794 51.0 36.0 30.0
701 234 2 0.5897 51.759083 36.0 30.583117
702 234 2 0.5897 50.240917 36.0 30.583117
703 235 1 -1.1794 0.0 39.0 30.0
704 235 2 0.5897 0.759083 39.0 30.583117
705 235 2 0.5897 -0.759083 39.0 30.583117
706 236 1 -1.1794 3.0 39.0 30.0
707 236 2 0.5897 3.759083 39.0 30.583117
708 236 2 0.5897 2.240917 39.0 30.583117
709 237 1 -1.1794 6.0 39.0 30.0
710 237 2 0.5897 6.759083 39.0 30.583117
711 237 2 0.5897 5.240917 39.0 30.583117
712 238 1 -1.1794 9.0 39.0 30.0
713 238 2 0.5897 9.759083 39.0 30.583117
714 238 2 0.5897 8.240917 39.0 30.583117
715 239 1 -1.1794 12.0 39.0 30.0
716 239 2 0.5897 12.759083 39.0 30.583117
717 239 2 0.5897 11.240917 39.0 30.583117
718 240 1 -1.1794 15.0 39.0 30.0
719 240 2 0.5897 15.759083 39.0 30.583117
720 240 2 0.5897 14.240917 39.0 30.583117
721 241 1 -1.1794 18.0 39.0 30.0
722 241 2 0.5897 18.759083 39.0 30.583117
723 241 2 0.5897 17.240917 39.0 30.583117
724 242 1 -1.1794 21.0 39.0 30.0
725 242 2 0.5897 21.759083 39.0 30.583117
726 242 2 0.5897 20.240917 39.0 30.583117
727 243 1 -1.1794 24.0 39.0 30.0
728 243 2 0.5897 24.759083 39.0 30.583117
729 243 2 0.5897 23.240917 39.0 30.583117
730 244 1 -1.1794 27.0 39.0 30.0
731 244 2 0.5897 27.759083 39.0 30.583117
732 244 2 0.5897 26.240917 39.0 30.583117
733 245 1 -1.1794 30.0 39.0 30.0
734 245 2 0.5897 30.759083 39.0 30.583117
735 245 2 0.5897 29.240917 39.0 30.583117
736 246 1 -1.1794 33.0 39.0 30.0
737 246 2 0.5897 33.759083 39.0 30.583117
738 246 2 0.5897 32.240917 39.0 30.583117
739 247 1 -1.1794 36.0 39.0 30.0
740 247 2 0.5897 36.759083 39.0 30.583117
741 247 2 0.5897 35.240917 39.0 30.583117
742 248 1 -1.1794 39.0 39.0 30.0
743 248 2 0.5897 39.759083 39.0 30.583117
744 248 2 0.5897 38.240917 39.0 30.583117
745 249 1 -1.1794 42.0 39.0 30.0
746 249 2 0.5897 42.759083 39.0 30.583117
747 249 2 0.5897 41.240917 39.0 30.583117
748 250 1 -1.1794 45.0 39.0 30.0
749 250 2 0.5897 45.759083 39.0 30.583117
750 250 2 0.5897 44.240917 39.0 30.583117
751 251 1 -1.1794 48.0 39.0 30.0
752 251 2 0.5897 48.759083 39.0 30.583117
753 251 2 0.5897 47.240917 39.0 30.583117
754 252 1 -1.1794 51.0 39.0 30.0
755 252 2 0.5897 51.759083 39.0 30.583117
756 252 2 0.5897 50.240917 39.0 30.583117
757 253 1 -1.1794 0.0 42.0 30.0
758 253 2 0.5897 0.759083 42.0 30.583117
759 253 2 0.5897 -0.759083 42.0 30.583117
760 254 1 -1.1794 3.0 42.0 30.0
761 254 2 0.5897 3.759083 42.0 30.583117
762 254 2 0.5897 2.240917 42.0 30.583117
763 255 1 -1.1794 6.0 42.0 30.0
764 255 2 0.5897 6.759083 42.0 30.583117
765 255 2 0.5897 5.240917 42.0 30.583117
766 256 1 -1.1794 9.0 42.0 30.0
767 256 2 0.5897 9.759083 42.0 30.583117
768 256 2 0.5897 8.240917 42.0 30.583117
769 257 1 -1.1794 12.0 42.0 30.0
770 257 2 0.5897 12.759083 42.0 30.583117
771 257 2 0.5897 11.240917 42.0 30.583117
772 258 1 -1.1794 15.0 42.0 30.0
773 258 2 0.5897 15.759083 42.0 30.583117
774 258 2 0.5897 14.240917 42.0 30.583117
775 259 1 -1.1794 18.0 42.0 30.0
776 259 2 0.5897 18.759083 42.0 30.583117
777 259 2 0.5897 17.240917 42.0 30.583117
778 260 1 -1.1794 21.0 42.0 30.0
779 260 2 0.5897 21.759083 42.0 30.583117
780 260 2 0.5897 20.240917 42.0 30.583117
781 261 1 -1.1794 24.0 42.0 30.0
782 261 2 0.5897 24.759083 42.0 30.583117