LAMMPS Description

     8591  atoms
     4394  bonds
     2197  angles
     0  dihedrals
     0  impropers

     3  atom types
     1  bond types
     1  angle types

  0 39.86 xlo xhi
  0 39.86 ylo yhi
  -18 70.00 zlo zhi

Masses

1 1.0  # D
2 15.9994  # O
3 1.008  # H

Atoms  # full

1 1 1 0.0 0.0 0.0 0.0
2 1 1 0.0 0.0 1.993 -1.993
3 1 1 0.0 1.993 0.0 -1.993
4 1 1 0.0 1.993 1.993 0.0
5 2 1 0.0 3.986 0.0 0.0
6 2 1 0.0 3.986 1.993 -1.993
7 2 1 0.0 5.979 0.0 -1.993
8 2 1 0.0 5.979 1.993 0.0
9 3 1 0.0 7.972 0.0 0.0
10 3 1 0.0 7.972 1.993 -1.993
11 3 1 0.0 9.965 0.0 -1.993
12 3 1 0.0 9.965 1.993 0.0
13 4 1 0.0 11.958 0.0 0.0
14 4 1 0.0 11.958 1.993 -1.993
15 4 1 0.0 13.951 0.0 -1.993
16 4 1 0.0 13.951 1.993 0.0
17 5 1 0.0 15.944 0.0 0.0
18 5 1 0.0 15.944 1.993 -1.993
19 5 1 0.0 17.937 0.0 -1.993
20 5 1 0.0 17.937 1.993 0.0
21 6 1 0.0 19.93 0.0 0.0
22 6 1 0.0 19.93 1.993 -1.993
23 6 1 0.0 21.923 0.0 -1.993
24 6 1 0.0 21.923 1.993 0.0
25 7 1 0.0 23.916 0.0 0.0
26 7 1 0.0 23.916 1.993 -1.993
27 7 1 0.0 25.909 0.0 -1.993
28 7 1 0.0 25.909 1.993 0.0
29 8 1 0.0 27.902 0.0 0.0
30 8 1 0.0 27.902 1.993 -1.993
31 8 1 0.0 29.895 0.0 -1.993
32 8 1 0.0 29.895 1.993 0.0
33 9 1 0.0 31.888 0.0 0.0
34 9 1 0.0 31.888 1.993 -1.993
35 9 1 0.0 33.881 0.0 -1.993
36 9 1 0.0 33.881 1.993 0.0
37 10 1 0.0 35.874 0.0 0.0
38 10 1 0.0 35.874 1.993 -1.993
39 10 1 0.0 37.867000000000004 0.0 -1.993
40 10 1 0.0 37.867000000000004 1.993 0.0
41 11 1 0.0 0.0 3.986 0.0
42 11 1 0.0 0.0 5.979 -1.993
43 11 1 0.0 1.993 3.986 -1.993
44 11 1 0.0 1.993 5.979 0.0
45 12 1 0.0 3.986 3.986 0.0
46 12 1 0.0 3.986 5.979 -1.993
47 12 1 0.0 5.979 3.986 -1.993
48 12 1 0.0 5.979 5.979 0.0
49 13 1 0.0 7.972 3.986 0.0
50 13 1 0.0 7.972 5.979 -1.993
51 13 1 0.0 9.965 3.986 -1.993
52 13 1 0.0 9.965 5.979 0.0
53 14 1 0.0 11.958 3.986 0.0
54 14 1 0.0 11.958 5.979 -1.993
55 14 1 0.0 13.951 3.986 -1.993
56 14 1 0.0 13.951 5.979 0.0
57 15 1 0.0 15.944 3.986 0.0
58 15 1 0.0 15.944 5.979 -1.993
59 15 1 0.0 17.937 3.986 -1.993
60 15 1 0.0 17.937 5.979 0.0
61 16 1 0.0 19.93 3.986 0.0
62 16 1 0.0 19.93 5.979 -1.993
63 16 1 0.0 21.923 3.986 -1.993
64 16 1 0.0 21.923 5.979 0.0
65 17 1 0.0 23.916 3.986 0.0
66 17 1 0.0 23.916 5.979 -1.993
67 17 1 0.0 25.909 3.986 -1.993
68 17 1 0.0 25.909 5.979 0.0
69 18 1 0.0 27.902 3.986 0.0
70 18 1 0.0 27.902 5.979 -1.993
71 18 1 0.0 29.895 3.986 -1.993
72 18 1 0.0 29.895 5.979 0.0
73 19 1 0.0 31.888 3.986 0.0
74 19 1 0.0 31.888 5.979 -1.993
75 19 1 0.0 33.881 3.986 -1.993
76 19 1 0.0 33.881 5.979 0.0
77 20 1 0.0 35.874 3.986 0.0
78 20 1 0.0 35.874 5.979 -1.993
79 20 1 0.0 37.867000000000004 3.986 -1.993
80 20 1 0.0 37.867000000000004 5.979 0.0
81 21 1 0.0 0.0 7.972 0.0
82 21 1 0.0 0.0 9.965 -1.993
83 21 1 0.0 1.993 7.972 -1.993
84 21 1 0.0 1.993 9.965 0.0
85 22 1 0.0 3.986 7.972 0.0
86 22 1 0.0 3.986 9.965 -1.993
87 22 1 0.0 5.979 7.972 -1.993
88 22 1 0.0 5.979 9.965 0.0
89 23 1 0.0 7.972 7.972 0.0
90 23 1 0.0 7.972 9.965 -1.993
91 23 1 0.0 9.965 7.972 -1.993
92 23 1 0.0 9.965 9.965 0.0
93 24 1 0.0 11.958 7.972 0.0
94 24 1 0.0 11.958 9.965 -1.993
95 24 1 0.0 13.951 7.972 -1.993
96 24 1 0.0 13.951 9.965 0.0
97 25 1 0.0 15.944 7.972 0.0
98 25 1 0.0 15.944 9.965 -1.993
99 25 1 0.0 17.937 7.972 -1.993
100 25 1 0.0 17.937 9.965 0.0
101 26 1 0.0 19.93 7.972 0.0
102 26 1 0.0 19.93 9.965 -1.993
103 26 1 0.0 21.923 7.972 -1.993
104 26 1 0.0 21.923 9.965 0.0
105 27 1 0.0 23.916 7.972 0.0
106 27 1 0.0 23.916 9.965 -1.993
107 27 1 0.0 25.909 7.972 -1.993
108 27 1 0.0 25.909 9.965 0.0
109 28 1 0.0 27.902 7.972 0.0
110 28 1 0.0 27.902 9.965 -1.993
111 28 1 0.0 29.895 7.972 -1.993
112 28 1 0.0 29.895 9.965 0.0
113 29 1 0.0 31.888 7.972 0.0
114 29 1 0.0 31.888 9.965 -1.993
115 29 1 0.0 33.881 7.972 -1.993
116 29 1 0.0 33.881 9.965 0.0
117 30 1 0.0 35.874 7.972 0.0
118 30 1 0.0 35.874 9.965 -1.993
119 30 1 0.0 37.867000000000004 7.972 -1.993
120 30 1 0.0 37.867000000000004 9.965 0.0
121 31 1 0.0 0.0 11.958 0.0
122 31 1 0.0 0.0 13.951 -1.993
123 31 1 0.0 1.993 11.958 -1.993
124 31 1 0.0 1.993 13.951 0.0
125 32 1 0.0 3.986 11.958 0.0
126 32 1 0.0 3.986 13.951 -1.993
127 32 1 0.0 5.979 11.958 -1.993
128 32 1 0.0 5.979 13.951 0.0
129 33 1 0.0 7.972 11.958 0.0
130 33 1 0.0 7.972 13.951 -1.993
131 33 1 0.0 9.965 11.958 -1.993
132 33 1 0.0 9.965 13.951 0.0
133 34 1 0.0 11.958 11.958 0.0
134 34 1 0.0 11.958 13.951 -1.993
135 34 1 0.0 13.951 11.958 -1.993
136 34 1 0.0 13.951 13.951 0.0
137 35 1 0.0 15.944 11.958 0.0
138 35 1 0.0 15.944 13.951 -1.993
139 35 1 0.0 17.937 11.958 -1.993
140 35 1 0.0 17.937 13.951 0.0
141 36 1 0.0 19.93 11.958 0.0
142 36 1 0.0 19.93 13.951 -1.993
143 36 1 0.0 21.923 11.958 -1.993
144 36 1 0.0 21.923 13.951 0.0
145 37 1 0.0 23.916 11.958 0.0
146 37 1 0.0 23.916 13.951 -1.993
147 37 1 0.0 25.909 11.958 -1.993
148 37 1 0.0 25.909 13.951 0.0
149 38 1 0.0 27.902 11.958 0.0
150 38 1 0.0 27.902 13.951 -1.993
151 38 1 0.0 29.895 11.958 -1.993
152 38 1 0.0 29.895 13.951 0.0
153 39 1 0.0 31.888 11.958 0.0
154 39 1 0.0 31.888 13.951 -1.993
155 39 1 0.0 33.881 11.958 -1.993
156 39 1 0.0 33.881 13.951 0.0
157 40 1 0.0 35.874 11.958 0.0
158 40 1 0.0 35.874 13.951 -1.993
159 40 1 0.0 37.867000000000004 11.958 -1.993
160 40 1 0.0 37.867000000000004 13.951 0.0
161 41 1 0.0 0.0 15.944 0.0
162 41 1 0.0 0.0 17.937 -1.993
163 41 1 0.0 1.993 15.944 -1.993
164 41 1 0.0 1.993 17.937 0.0
165 42 1 0.0 3.986 15.944 0.0
166 42 1 0.0 3.986 17.937 -1.993
167 42 1 0.0 5.979 15.944 -1.993
168 42 1 0.0 5.979 17.937 0.0
169 43 1 0.0 7.972 15.944 0.0
170 43 1 0.0 7.972 17.937 -1.993
171 43 1 0.0 9.965 15.944 -1.993
172 43 1 0.0 9.965 17.937 0.0
173 44 1 0.0 11.958 15.944 0.0
174 44 1 0.0 11.958 17.937 -1.993
175 44 1 0.0 13.951 15.944 -1.993
176 44 1 0.0 13.951 17.937 0.0
177 45 1 0.0 15.944 15.944 0.0
178 45 1 0.0 15.944 17.937 -1.993
179 45 1 0.0 17.937 15.944 -1.993
180 45 1 0.0 17.937 17.937 0.0
181 46 1 0.0 19.93 15.944 0.0
182 46 1 0.0 19.93 17.937 -1.993
183 46 1 0.0 21.923 15.944 -1.993
184 46 1 0.0 21.923 17.937 0.0
185 47 1 0.0 23.916 15.944 0.0
186 47 1 0.0 23.916 17.937 -1.993
187 47 1 0.0 25.909 15.944 -1.993
188 47 1 0.0 25.909 17.937 0.0
189 48 1 0.0 27.902 15.944 0.0
190 48 1 0.0 27.902 17.937 -1.993
191 48 1 0.0 29.895 15.944 -1.993
192 48 1 0.0 29.895 17.937 0.0
193 49 1 0.0 31.888 15.944 0.0
194 49 1 0.0 31.888 17.937 -1.993
195 49 1 0.0 33.881 15.944 -1.993
196 49 1 0.0 33.881 17.937 0.0
197 50 1 0.0 35.874 15.944 0.0
198 50 1 0.0 35.874 17.937 -1.993
199 50 1 0.0 37.867000000000004 15.944 -1.993
200 50 1 0.0 37.867000000000004 17.937 0.0
201 51 1 0.0 0.0 19.93 0.0
202 51 1 0.0 0.0 21.923 -1.993
203 51 1 0.0 1.993 19.93 -1.993
204 51 1 0.0 1.993 21.923 0.0
205 52 1 0.0 3.986 19.93 0.0
206 52 1 0.0 3.986 21.923 -1.993
207 52 1 0.0 5.979 19.93 -1.993
208 52 1 0.0 5.979 21.923 0.0
209 53 1 0.0 7.972 19.93 0.0
210 53 1 0.0 7.972 21.923 -1.993
211 53 1 0.0 9.965 19.93 -1.993
212 53 1 0.0 9.965 21.923 0.0
213 54 1 0.0 11.958 19.93 0.0
214 54 1 0.0 11.958 21.923 -1.993
215 54 1 0.0 13.951 19.93 -1.993
216 54 1 0.0 13.951 21.923 0.0
217 55 1 0.0 15.944 19.93 0.0
218 55 1 0.0 15.944 21.923 -1.993
219 55 1 0.0 17.937 19.93 -1.993
220 55 1 0.0 17.937 21.923 0.0
221 56 1 0.0 19.93 19.93 0.0
222 56 1 0.0 19.93 21.923 -1.993
223 56 1 0.0 21.923 19.93 -1.993
224 56 1 0.0 21.923 21.923 0.0
225 57 1 0.0 23.916 19.93 0.0
226 57 1 0.0 23.916 21.923 -1.993
227 57 1 0.0 25.909 19.93 -1.993
228 57 1 0.0 25.909 21.923 0.0
229 58 1 0.0 27.902 19.93 0.0
230 58 1 0.0 27.902 21.923 -1.993
231 58 1 0.0 29.895 19.93 -1.993
232 58 1 0.0 29.895 21.923 0.0
233 59 1 0.0 31.888 19.93 0.0
234 59 1 0.0 31.888 21.923 -1.993
235 59 1 0.0 33.881 19.93 -1.993
236 59 1 0.0 33.881 21.923 0.0
237 60 1 0.0 35.874 19.93 0.0
238 60 1 0.0 35.874 21.923 -1.993
239 60 1 0.0 37.867000000000004 19.93 -1.993
240 60 1 0.0 37.867000000000004 21.923 0.0
241 61 1 0.0 0.0 23.916 0.0
242 61 1 0.0 0.0 25.909 -1.993
243 61 1 0.0 1.993 23.916 -1.993
244 61 1 0.0 1.993 25.909 0.0
245 62 1 0.0 3.986 23.916 0.0
246 62 1 0.0 3.986 25.909 -1.993
247 62 1 0.0 5.979 23.916 -1.993
248 62 1 0.0 5.979 25.909 0.0
249 63 1 0.0 7.972 23.916 0.0
250 63 1 0.0 7.972 25.909 -1.993
251 63 1 0.0 9.965 23.916 -1.993
252 63 1 0.0 9.965 25.909 0.0
253 64 1 0.0 11.958 23.916 0.0
254 64 1 0.0 11.958 25.909 -1.993
255 64 1 0.0 13.951 23.916 -1.993
256 64 1 0.0 13.951 25.909 0.0
257 65 1 0.0 15.944 23.916 0.0
258 65 1 0.0 15.944 25.909 -1.993
259 65 1 0.0 17.937 23.916 -1.993
260 65 1 0.0 17.937 25.909 0.0
261 66 1 0.0 19.93 23.916 0.0
262 66 1 0.0 19.93 25.909 -1.993
263 66 1 0.0 21.923 23.916 -1.993
264 66 1 0.0 21.923 25.909 0.0
265 67 1 0.0 23.916 23.916 0.0
266 67 1 0.0 23.916 25.909 -1.993
267 67 1 0.0 25.909 23.916 -1.993
268 67 1 0.0 25.909 25.909 0.0
269 68 1 0.0 27.902 23.916 0.0
270 68 1 0.0 27.902 25.909 -1.993
271 68 1 0.0 29.895 23.916 -1.993
272 68 1 0.0 29.895 25.909 0.0
273 69 1 0.0 31.888 23.916 0.0
274 69 1 0.0 31.888 25.909 -1.993
275 69 1 0.0 33.881 23.916 -1.993
276 69 1 0.0 33.881 25.909 0.0
277 70 1 0.0 35.874 23.916 0.0
278 70 1 0.0 35.874 25.909 -1.993
279 70 1 0.0 37.867000000000004 23.916 -1.993
280 70 1 0.0 37.867000000000004 25.909 0.0
281 71 1 0.0 0.0 27.902 0.0
282 71 1 0.0 0.0 29.895 -1.993
283 71 1 0.0 1.993 27.902 -1.993
284 71 1 0.0 1.993 29.895 0.0
285 72 1 0.0 3.986 27.902 0.0
286 72 1 0.0 3.986 29.895 -1.993
287 72 1 0.0 5.979 27.902 -1.993
288 72 1 0.0 5.979 29.895 0.0
289 73 1 0.0 7.972 27.902 0.0
290 73 1 0.0 7.972 29.895 -1.993
291 73 1 0.0 9.965 27.902 -1.993
292 73 1 0.0 9.965 29.895 0.0
293 74 1 0.0 11.958 27.902 0.0
294 74 1 0.0 11.958 29.895 -1.993
295 74 1 0.0 13.951 27.902 -1.993
296 74 1 0.0 13.951 29.895 0.0
297 75 1 0.0 15.944 27.902 0.0
298 75 1 0.0 15.944 29.895 -1.993
299 75 1 0.0 17.937 27.902 -1.993
300 75 1 0.0 17.937 29.895 0.0
301 76 1 0.0 19.93 27.902 0.0
302 76 1 0.0 19.93 29.895 -1.993
303 76 1 0.0 21.923 27.902 -1.993
304 76 1 0.0 21.923 29.895 0.0
305 77 1 0.0 23.916 27.902 0.0
306 77 1 0.0 23.916 29.895 -1.993
307 77 1 0.0 25.909 27.902 -1.993
308 77 1 0.0 25.909 29.895 0.0
309 78 1 0.0 27.902 27.902 0.0
310 78 1 0.0 27.902 29.895 -1.993
311 78 1 0.0 29.895 27.902 -1.993
312 78 1 0.0 29.895 29.895 0.0
313 79 1 0.0 31.888 27.902 0.0
314 79 1 0.0 31.888 29.895 -1.993
315 79 1 0.0 33.881 27.902 -1.993
316 79 1 0.0 33.881 29.895 0.0
317 80 1 0.0 35.874 27.902 0.0
318 80 1 0.0 35.874 29.895 -1.993
319 80 1 0.0 37.867000000000004 27.902 -1.993
320 80 1 0.0 37.867000000000004 29.895 0.0
321 81 1 0.0 0.0 31.888 0.0
322 81 1 0.0 0.0 33.881 -1.993
323 81 1 0.0 1.993 31.888 -1.993
324 81 1 0.0 1.993 33.881 0.0
325 82 1 0.0 3.986 31.888 0.0
326 82 1 0.0 3.986 33.881 -1.993
327 82 1 0.0 5.979 31.888 -1.993
328 82 1 0.0 5.979 33.881 0.0
329 83 1 0.0 7.972 31.888 0.0
330 83 1 0.0 7.972 33.881 -1.993
331 83 1 0.0 9.965 31.888 -1.993
332 83 1 0.0 9.965 33.881 0.0
333 84 1 0.0 11.958 31.888 0.0
334 84 1 0.0 11.958 33.881 -1.993
335 84 1 0.0 13.951 31.888 -1.993
336 84 1 0.0 13.951 33.881 0.0
337 85 1 0.0 15.944 31.888 0.0
338 85 1 0.0 15.944 33.881 -1.993
339 85 1 0.0 17.937 31.888 -1.993
340 85 1 0.0 17.937 33.881 0.0
341 86 1 0.0 19.93 31.888 0.0
342 86 1 0.0 19.93 33.881 -1.993
343 86 1 0.0 21.923 31.888 -1.993
344 86 1 0.0 21.923 33.881 0.0
345 87 1 0.0 23.916 31.888 0.0
346 87 1 0.0 23.916 33.881 -1.993
347 87 1 0.0 25.909 31.888 -1.993
348 87 1 0.0 25.909 33.881 0.0
349 88 1 0.0 27.902 31.888 0.0
350 88 1 0.0 27.902 33.881 -1.993
351 88 1 0.0 29.895 31.888 -1.993
352 88 1 0.0 29.895 33.881 0.0
353 89 1 0.0 31.888 31.888 0.0
354 89 1 0.0 31.888 33.881 -1.993
355 89 1 0.0 33.881 31.888 -1.993
356 89 1 0.0 33.881 33.881 0.0
357 90 1 0.0 35.874 31.888 0.0
358 90 1 0.0 35.874 33.881 -1.993
359 90 1 0.0 37.867000000000004 31.888 -1.993
360 90 1 0.0 37.867000000000004 33.881 0.0
361 91 1 0.0 0.0 35.874 0.0
362 91 1 0.0 0.0 37.867000000000004 -1.993
363 91 1 0.0 1.993 35.874 -1.993
364 91 1 0.0 1.993 37.867000000000004 0.0
365 92 1 0.0 3.986 35.874 0.0
366 92 1 0.0 3.986 37.867000000000004 -1.993
367 92 1 0.0 5.979 35.874 -1.993
368 92 1 0.0 5.979 37.867000000000004 0.0
369 93 1 0.0 7.972 35.874 0.0
370 93 1 0.0 7.972 37.867000000000004 -1.993
371 93 1 0.0 9.965 35.874 -1.993
372 93 1 0.0 9.965 37.867000000000004 0.0
373 94 1 0.0 11.958 35.874 0.0
374 94 1 0.0 11.958 37.867000000000004 -1.993
375 94 1 0.0 13.951 35.874 -1.993
376 94 1 0.0 13.951 37.867000000000004 0.0
377 95 1 0.0 15.944 35.874 0.0
378 95 1 0.0 15.944 37.867000000000004 -1.993
379 95 1 0.0 17.937 35.874 -1.993
380 95 1 0.0 17.937 37.867000000000004 0.0
381 96 1 0.0 19.93 35.874 0.0
382 96 1 0.0 19.93 37.867000000000004 -1.993
383 96 1 0.0 21.923 35.874 -1.993
384 96 1 0.0 21.923 37.867000000000004 0.0
385 97 1 0.0 23.916 35.874 0.0
386 97 1 0.0 23.916 37.867000000000004 -1.993
387 97 1 0.0 25.909 35.874 -1.993
388 97 1 0.0 25.909 37.867000000000004 0.0
389 98 1 0.0 27.902 35.874 0.0
390 98 1 0.0 27.902 37.867000000000004 -1.993
391 98 1 0.0 29.895 35.874 -1.993
392 98 1 0.0 29.895 37.867000000000004 0.0
393 99 1 0.0 31.888 35.874 0.0
394 99 1 0.0 31.888 37.867000000000004 -1.993
395 99 1 0.0 33.881 35.874 -1.993
396 99 1 0.0 33.881 37.867000000000004 0.0
397 100 1 0.0 35.874 35.874 0.0
398 100 1 0.0 35.874 37.867000000000004 -1.993
399 100 1 0.0 37.867000000000004 35.874 -1.993
400 100 1 0.0 37.867000000000004 37.867000000000004 0.0
401 101 1 0.0 0.0 0.0 -3.986
402 101 1 0.0 0.0 1.993 -5.979
403 101 1 0.0 1.993 0.0 -5.979
404 101 1 0.0 1.993 1.993 -3.986
405 102 1 0.0 3.986 0.0 -3.986
406 102 1 0.0 3.986 1.993 -5.979
407 102 1 0.0 5.979 0.0 -5.979
408 102 1 0.0 5.979 1.993 -3.986
409 103 1 0.0 7.972 0.0 -3.986
410 103 1 0.0 7.972 1.993 -5.979
411 103 1 0.0 9.965 0.0 -5.979
412 103 1 0.0 9.965 1.993 -3.986
413 104 1 0.0 11.958 0.0 -3.986
414 104 1 0.0 11.958 1.993 -5.979
415 104 1 0.0 13.951 0.0 -5.979
416 104 1 0.0 13.951 1.993 -3.986
417 105 1 0.0 15.944 0.0 -3.986
418 105 1 0.0 15.944 1.993 -5.979
419 105 1 0.0 17.937 0.0 -5.979
420 105 1 0.0 17.937 1.993 -3.986
421 106 1 0.0 19.93 0.0 -3.986
422 106 1 0.0 19.93 1.993 -5.979
423 106 1 0.0 21.923 0.0 -5.979
424 106 1 0.0 21.923 1.993 -3.986
425 107 1 0.0 23.916 0.0 -3.986
426 107 1 0.0 23.916 1.993 -5.979
427 107 1 0.0 25.909 0.0 -5.979
428 107 1 0.0 25.909 1.993 -3.986
429 108 1 0.0 27.902 0.0 -3.986
430 108 1 0.0 27.902 1.993 -5.979
431 108 1 0.0 29.895 0.0 -5.979
432 108 1 0.0 29.895 1.993 -3.986
433 109 1 0.0 31.888 0.0 -3.986
434 109 1 0.0 31.888 1.993 -5.979
435 109 1 0.0 33.881 0.0 -5.979
436 109 1 0.0 33.881 1.993 -3.986
437 110 1 0.0 35.874 0.0 -3.986
438 110 1 0.0 35.874 1.993 -5.979
439 110 1 0.0 37.867000000000004 0.0 -5.979
440 110 1 0.0 37.867000000000004 1.993 -3.986
441 111 1 0.0 0.0 3.986 -3.986
442 111 1 0.0 0.0 5.979 -5.979
443 111 1 0.0 1.993 3.986 -5.979
444 111 1 0.0 1.993 5.979 -3.986
445 112 1 0.0 3.986 3.986 -3.986
446 112 1 0.0 3.986 5.979 -5.979
447 112 1 0.0 5.979 3.986 -5.979
448 112 1 0.0 5.979 5.979 -3.986
449 113 1 0.0 7.972 3.986 -3.986
450 113 1 0.0 7.972 5.979 -5.979
451 113 1 0.0 9.965 3.986 -5.979
452 113 1 0.0 9.965 5.979 -3.986
453 114 1 0.0 11.958 3.986 -3.986
454 114 1 0.0 11.958 5.979 -5.979
455 114 1 0.0 13.951 3.986 -5.979
456 114 1 0.0 13.951 5.979 -3.986
457 115 1 0.0 15.944 3.986 -3.986
458 115 1 0.0 15.944 5.979 -5.979
459 115 1 0.0 17.937 3.986 -5.979
460 115 1 0.0 17.937 5.979 -3.986
461 116 1 0.0 19.93 3.986 -3.986
462 116 1 0.0 19.93 5.979 -5.979
463 116 1 0.0 21.923 3.986 -5.979
464 116 1 0.0 21.923 5.979 -3.986
465 117 1 0.0 23.916 3.986 -3.986
466 117 1 0.0 23.916 5.979 -5.979
467 117 1 0.0 25.909 3.986 -5.979
468 117 1 0.0 25.909 5.979 -3.986
469 118 1 0.0 27.902 3.986 -3.986
470 118 1 0.0 27.902 5.979 -5.979
471 118 1 0.0 29.895 3.986 -5.979
472 118 1 0.0 29.895 5.979 -3.986
473 119 1 0.0 31.888 3.986 -3.986
474 119 1 0.0 31.888 5.979 -5.979
475 119 1 0.0 33.881 3.986 -5.979
476 119 1 0.0 33.881 5.979 -3.986
477 120 1 0.0 35.874 3.986 -3.986
478 120 1 0.0 35.874 5.979 -5.979
479 120 1 0.0 37.867000000000004 3.986 -5.979
480 120 1 0.0 37.867000000000004 5.979 -3.986
481 121 1 0.0 0.0 7.972 -3.986
482 121 1 0.0 0.0 9.965 -5.979
483 121 1 0.0 1.993 7.972 -5.979
484 121 1 0.0 1.993 9.965 -3.986
485 122 1 0.0 3.986 7.972 -3.986
486 122 1 0.0 3.986 9.965 -5.979
487 122 1 0.0 5.979 7.972 -5.979
488 122 1 0.0 5.979 9.965 -3.986
489 123 1 0.0 7.972 7.972 -3.986
490 123 1 0.0 7.972 9.965 -5.979
491 123 1 0.0 9.965 7.972 -5.979
492 123 1 0.0 9.965 9.965 -3.986
493 124 1 0.0 11.958 7.972 -3.986
494 124 1 0.0 11.958 9.965 -5.979
495 124 1 0.0 13.951 7.972 -5.979
496 124 1 0.0 13.951 9.965 -3.986
497 125 1 0.0 15.944 7.972 -3.986
498 125 1 0.0 15.944 9.965 -5.979
499 125 1 0.0 17.937 7.972 -5.979
500 125 1 0.0 17.937 9.965 -3.986
501 126 1 0.0 19.93 7.972 -3.986
502 126 1 0.0 19.93 9.965 -5.979
503 126 1 0.0 21.923 7.972 -5.979
504 126 1 0.0 21.923 9.965 -3.986
505 127 1 0.0 23.916 7.972 -3.986
506 127 1 0.0 23.916 9.965 -5.979
507 127 1 0.0 25.909 7.972 -5.979
508 127 1 0.0 25.909 9.965 -3.986
509 128 1 0.0 27.902 7.972 -3.986
510 128 1 0.0 27.902 9.965 -5.979
511 128 1 0.0 29.895 7.972 -5.979
512 128 1 0.0 29.895 9.965 -3.986
513 129 1 0.0 31.888 7.972 -3.986
514 129 1 0.0 31.888 9.965 -5.979
515 129 1 0.0 33.881 7.972 -5.979
516 129 1 0.0 33.881 9.965 -3.986
517 130 1 0.0 35.874 7.972 -3.986
518 130 1 0.0 35.874 9.965 -5.979
519 130 1 0.0 37.867000000000004 7.972 -5.979
520 130 1 0.0 37.867000000000004 9.965 -3.986
521 131 1 0.0 0.0 11.958 -3.986
522 131 1 0.0 0.0 13.951 -5.979
523 131 1 0.0 1.993 11.958 -5.979
524 131 1 0.0 1.993 13.951 -3.986
525 132 1 0.0 3.986 11.958 -3.986
526 132 1 0.0 3.986 13.951 -5.979
527 132 1 0.0 5.979 11.958 -5.979
528 132 1 0.0 5.979 13.951 -3.986
529 133 1 0.0 7.972 11.958 -3.986
530 133 1 0.0 7.972 13.951 -5.979
531 133 1 0.0 9.965 11.958 -5.979
532 133 1 0.0 9.965 13.951 -3.986
533 134 1 0.0 11.958 11.958 -3.986
534 134 1 0.0 11.958 13.951 -5.979
535 134 1 0.0 13.951 11.958 -5.979
536 134 1 0.0 13.951 13.951 -3.986
537 135 1 0.0 15.944 11.958 -3.986
538 135 1 0.0 15.944 13.951 -5.979
539 135 1 0.0 17.937 11.958 -5.979
540 135 1 0.0 17.937 13.951 -3.986
541 136 1 0.0 19.93 11.958 -3.986
542 136 1 0.0 19.93 13.951 -5.979
543 136 1 0.0 21.923 11.958 -5.979
544 136 1 0.0 21.923 13.951 -3.986
545 137 1 0.0 23.916 11.958 -3.986
546 137 1 0.0 23.916 13.951 -5.979
547 137 1 0.0 25.909 11.958 -5.979
548 137 1 0.0 25.909 13.951 -3.986
549 138 1 0.0 27.902 11.958 -3.986
550 138 1 0.0 27.902 13.951 -5.979
551 138 1 0.0 29.895 11.958 -5.979
552 138 1 0.0 29.895 13.951 -3.986
553 139 1 0.0 31.888 11.958 -3.986
554 139 1 0.0 31.888 13.951 -5.979
555 139 1 0.0 33.881 11.958 -5.979
556 139 1 0.0 33.881 13.951 -3.986
557 140 1 0.0 35.874 11.958 -3.986
558 140 1 0.0 35.874 13.951 -5.979
559 140 1 0.0 37.867000000000004 11.958 -5.979
560 140 1 0.0 37.867000000000004 13.951 -3.986
561 141 1 0.0 0.0 15.944 -3.986
562 141 1 0.0 0.0 17.937 -5.979
563 141 1 0.0 1.993 15.944 -5.979
564 141 1 0.0 1.993 17.937 -3.986
565 142 1 0.0 3.986 15.944 -3.986
566 142 1 0.0 3.986 17.937 -5.979
567 142 1 0.0 5.979 15.944 -5.979
568 142 1 0.0 5.979 17.937 -3.986
569 143 1 0.0 7.972 15.944 -3.986
570 143 1 0.0 7.972 17.937 -5.979
571 143 1 0.0 9.965 15.944 -5.979
572 143 1 0.0 9.965 17.937 -3.986
573 144 1 0.0 11.958 15.944 -3.986
574 144 1 0.0 11.958 17.937 -5.979
575 144 1 0.0 13.951 15.944 -5.979
576 144 1 0.0 13.951 17.937 -3.986
577 145 1 0.0 15.944 15.944 -3.986
578 145 1 0.0 15.944 17.937 -5.979
579 145 1 0.0 17.937 15.944 -5.979
580 145 1 0.0 17.937 17.937 -3.986
581 146 1 0.0 19.93 15.944 -3.986
582 146 1 0.0 19.93 17.937 -5.979
583 146 1 0.0 21.923 15.944 -5.979
584 146 1 0.0 21.923 17.937 -3.986
585 147 1 0.0 23.916 15.944 -3.986
586 147 1 0.0 23.916 17.937 -5.979
587 147 1 0.0 25.909 15.944 -5.979
588 147 1 0.0 25.909 17.937 -3.986
589 148 1 0.0 27.902 15.944 -3.986
590 148 1 0.0 27.902 17.937 -5.979
591 148 1 0.0 29.895 15.944 -5.979
592 148 1 0.0 29.895 17.937 -3.986
593 149 1 0.0 31.888 15.944 -3.986
594 149 1 0.0 31.888 17.937 -5.979
595 149 1 0.0 33.881 15.944 -5.979
596 149 1 0.0 33.881 17.937 -3.986
597 150 1 0.0 35.874 15.944 -3.986
598 150 1 0.0 35.874 17.937 -5.979
599 150 1 0.0 37.867000000000004 15.944 -5.979
600 150 1 0.0 37.867000000000004 17.937 -3.986
601 151 1 0.0 0.0 19.93 -3.986
602 151 1 0.0 0.0 21.923 -5.979
603 151 1 0.0 1.993 19.93 -5.979
604 151 1 0.0 1.993 21.923 -3.986
605 152 1 0.0 3.986 19.93 -3.986
606 152 1 0.0 3.986 21.923 -5.979
607 152 1 0.0 5.979 19.93 -5.979
608 152 1 0.0 5.979 21.923 -3.986
609 153 1 0.0 7.972 19.93 -3.986
610 153 1 0.0 7.972 21.923 -5.979
611 153 1 0.0 9.965 19.93 -5.979
612 153 1 0.0 9.965 21.923 -3.986
613 154 1 0.0 11.958 19.93 -3.986
614 154 1 0.0 11.958 21.923 -5.979
615 154 1 0.0 13.951 19.93 -5.979
616 154 1 0.0 13.951 21.923 -3.986
617 155 1 0.0 15.944 19.93 -3.986
618 155 1 0.0 15.944 21.923 -5.979
619 155 1 0.0 17.937 19.93 -5.979
620 155 1 0.0 17.937 21.923 -3.986
621 156 1 0.0 19.93 19.93 -3.986
622 156 1 0.0 19.93 21.923 -5.979
623 156 1 0.0 21.923 19.93 -5.979
624 156 1 0.0 21.923 21.923 -3.986
625 157 1 0.0 23.916 19.93 -3.986
626 157 1 0.0 23.916 21.923 -5.979
627 157 1 0.0 25.909 19.93 -5.979
628 157 1 0.0 25.909 21.923 -3.986
629 158 1 0.0 27.902 19.93 -3.986
630 158 1 0.0 27.902 21.923 -5.979
631 158 1 0.0 29.895 19.93 -5.979
632 158 1 0.0 29.895 21.923 -3.986
633 159 1 0.0 31.888 19.93 -3.986
634 159 1 0.0 31.888 21.923 -5.979
635 159 1 0.0 33.881 19.93 -5.979
636 159 1 0.0 33.881 21.923 -3.986
637 160 1 0.0 35.874 19.93 -3.986
638 160 1 0.0 35.874 21.923 -5.979
639 160 1 0.0 37.867000000000004 19.93 -5.979
640 160 1 0.0 37.867000000000004 21.923 -3.986
641 161 1 0.0 0.0 23.916 -3.986
642 161 1 0.0 0.0 25.909 -5.979
643 161 1 0.0 1.993 23.916 -5.979
644 161 1 0.0 1.993 25.909 -3.986
645 162 1 0.0 3.986 23.916 -3.986
646 162 1 0.0 3.986 25.909 -5.979
647 162 1 0.0 5.979 23.916 -5.979
648 162 1 0.0 5.979 25.909 -3.986
649 163 1 0.0 7.972 23.916 -3.986
650 163 1 0.0 7.972 25.909 -5.979
651 163 1 0.0 9.965 23.916 -5.979
652 163 1 0.0 9.965 25.909 -3.986
653 164 1 0.0 11.958 23.916 -3.986
654 164 1 0.0 11.958 25.909 -5.979
655 164 1 0.0 13.951 23.916 -5.979
656 164 1 0.0 13.951 25.909 -3.986
657 165 1 0.0 15.944 23.916 -3.986
658 165 1 0.0 15.944 25.909 -5.979
659 165 1 0.0 17.937 23.916 -5.979
660 165 1 0.0 17.937 25.909 -3.986
661 166 1 0.0 19.93 23.916 -3.986
662 166 1 0.0 19.93 25.909 -5.979
663 166 1 0.0 21.923 23.916 -5.979
664 166 1 0.0 21.923 25.909 -3.986
665 167 1 0.0 23.916 23.916 -3.986
666 167 1 0.0 23.916 25.909 -5.979
667 167 1 0.0 25.909 23.916 -5.979
668 167 1 0.0 25.909 25.909 -3.986
669 168 1 0.0 27.902 23.916 -3.986
670 168 1 0.0 27.902 25.909 -5.979
671 168 1 0.0 29.895 23.916 -5.979
672 168 1 0.0 29.895 25.909 -3.986
673 169 1 0.0 31.888 23.916 -3.986
674 169 1 0.0 31.888 25.909 -5.979
675 169 1 0.0 33.881 23.916 -5.979
676 169 1 0.0 33.881 25.909 -3.986
677 170 1 0.0 35.874 23.916 -3.986
678 170 1 0.0 35.874 25.909 -5.979
679 170 1 0.0 37.867000000000004 23.916 -5.979
680 170 1 0.0 37.867000000000004 25.909 -3.986
681 171 1 0.0 0.0 27.902 -3.986
682 171 1 0.0 0.0 29.895 -5.979
683 171 1 0.0 1.993 27.902 -5.979
684 171 1 0.0 1.993 29.895 -3.986
685 172 1 0.0 3.986 27.902 -3.986
686 172 1 0.0 3.986 29.895 -5.979
687 172 1 0.0 5.979 27.902 -5.979
688 172 1 0.0 5.979 29.895 -3.986
689 173 1 0.0 7.972 27.902 -3.986
690 173 1 0.0 7.972 29.895 -5.979
691 173 1 0.0 9.965 27.902 -5.979
692 173 1 0.0 9.965 29.895 -3.986
693 174 1 0.0 11.958 27.902 -3.986
694 174 1 0.0 11.958 29.895 -5.979
695 174 1 0.0 13.951 27.902 -5.979
696 174 1 0.0 13.951 29.895 -3.986
697 175 1 0.0 15.944 27.902 -3.986
698 175 1 0.0 15.944 29.895 -5.979
699 175 1 0.0 17.937 27.902 -5.979
700 175 1 0.0 17.937 29.895 -3.986
701 176 1 0.0 19.93 27.902 -3.986
702 176 1 0.0 19.93 29.895 -5.979
703 176 1 0.0 21.923 27.902 -5.979
704 176 1 0.0 21.923 29.895 -3.986
705 177 1 0.0 23.916 27.902 -3.986
706 177 1 0.0 23.916 29.895 -5.979
707 177 1 0.0 25.909 27.902 -5.979
708 177 1 0.0 25.909 29.895 -3.986
709 178 1 0.0 27.902 27.902 -3.986
710 178 1 0.0 27.902 29.895 -5.979
711 178 1 0.0 29.895 27.902 -5.979
712 178 1 0.0 29.895 29.895 -3.986
713 179 1 0.0 31.888 27.902 -3.986
714 179 1 0.0 31.888 29.895 -5.979
715 179 1 0.0 33.881 27.902 -5.979
716 179 1 0.0 33.881 29.895 -3.986
717 180 1 0.0 35.874 27.902 -3.986
718 180 1 0.0 35.874 29.895 -5.979
719 180 1 0.0 37.867000000000004 27.902 -5.979
720 180 1 0.0 37.867000000000004 29.895 -3.986
721 181 1 0.0 0.0 31.888 -3.986
722 181 1 0.0 0.0 33.881 -5.979
723 181 1 0.0 1.993 31.888 -5.979
724 181 1 0.0 1.993 33.881 -3.986
725 182 1 0.0 3.986 31.888 -3.986
726 182 1 0.0 3.986 33.881 -5.979
727 182 1 0.0 5.979 31.888 -5.979
728 182 1 0.0 5.979 33.881 -3.986
729 183 1 0.0 7.972 31.888 -3.986
730 183 1 0.0 7.972 33.881 -5.979
731 183 1 0.0 9.965 31.888 -5.979
732 183 1 0.0 9.965 33.881 -3.986
733 184 1 0.0 11.958 31.888 -3.986
734 184 1 0.0 11.958 33.881 -5.979
735 184 1 0.0 13.951 31.888 -5.979
736 184 1 0.0 13.951 33.881 -3.986
737 185 1 0.0 15.944 31.888 -3.986
738 185 1 0.0 15.944 33.881 -5.979
739 185 1 0.0 17.937 31.888 -5.979
740 185 1 0.0 17.937 33.881 -3.986
741 186 1 0.0 19.93 31.888 -3.986
742 186 1 0.0 19.93 33.881 -5.979
743 186 1 0.0 21.923 31.888 -5.979
744 186 1 0.0 21.923 33.881 -3.986
745 187 1 0.0 23.916 31.888 -3.986
746 187 1 0.0 23.916 33.881 -5.979
747 187 1 0.0 25.909 31.888 -5.979
748 187 1 0.0 25.909 33.881 -3.986
749 188 1 0.0 27.902 31.888 -3.986
750 188 1 0.0 27.902 33.881 -5.979
751 188 1 0.0 29.895 31.888 -5.979
752 188 1 0.0 29.895 33.881 -3.986
753 189 1 0.0 31.888 31.888 -3.986
754 189 1 0.0 31.888 33.881 -5.979
755 189 1 0.0 33.881 31.888 -5.979
756 189 1 0.0 33.881 33.881 -3.986
757 190 1 0.0 35.874 31.888 -3.986
758 190 1 0.0 35.874 33.881 -5.979
759 190 1 0.0 37.867000000000004 31.888 -5.979
760 190 1 0.0 37.867000000000004 33.881 -3.986
761 191 1 0.0 0.0 35.874 -3.986
762 191 1 0.0 0.0 37.867000000000004 -5.979
763 191 1 0.0 1.993 35.874 -5.979
764 191 1 0.0 1.993 37.867000000000004 -3.986
765 192 1 0.0 3.986 35.874 -3.986
766 192 1 0.0 3.986 37.867000000000004 -5.979
767 192 1 0.0 5.979 35.874 -5.979
768 192 1 0.0 5.979 37.867000000000004 -3.986
769 193 1 0.0 7.972 35.874 -3.986
770 193 1 0.0 7.972 37.867000000000004 -5.979
771 193 1 0.0 9.965 35.874 -5.979
772 193 1 0.0 9.965 37.867000000000004 -3.986
773 194 1 0.0 11.958 35.874 -3.986
774 194 1 0.0 11.958 37.867000000000004 -5.979
775 194 1 0.0 13.951 35.874 -5.979
776 194 1 0.0 13.951 37.867000000000004 -3.986
777 195 1 0.0 15.944 35.874 -3.986
778 195 1 0.0 15.944 37.867000000000004 -5.979
779 195 1 0.0 17.937 35.874 -5.979
780 195 1 0.0 17.937 37.867000000000004 -3.986
781 196 1 0.0 19.93 35.874 -3.986
782 196 1 0.0 19.93 37.867000000000004 -5.979
783 196 1 0.0 21.923 35.874 -5.979
784 196 1 0.0 21.923 37.867000000000004 -3.986
785 197 1 0.0 23.916 35.874 -3.986
786 197 1 0.0 23.916 37.867000000000004 -5.979
787 197 1 0.0 25.909 35.874 -5.979
788 197 1 0.0 25.909 37.867000000000004 -3.986
789 198 1 0.0 27.902 35.874 -3.986
790 198 1 0.0 27.902 37.867000000000004 -5.979
791 198 1 0.0 29.895 35.874 -5.979
792 198 1 0.0 29.895 37.867000000000004 -3.986
793 199 1 0.0 31.888 35.874 -3.986
794 199 1 0.0 31.888 37.867000000000004 -5.979
795 199 1 0.0 33.881 35.874 -5.979
796 199 1 0.0 33.881 37.867000000000004 -3.986
797 200 1 0.0 35.874 35.874 -3.986
798 200 1 0.0 35.874 37.867000000000004 -5.979
799 200 1 0.0 37.867000000000004 35.874 -5.979
800 200 1 0.0 37.867000000000004 37.867000000000004 -3.986
801 201 1 0.0 0.0 0.0 -7.972
802 201 1 0.0 0.0 1.993 -9.965
803 201 1 0.0 1.993 0.0 -9.965
804 201 1 0.0 1.993 1.993 -7.972
805 202 1 0.0 3.986 0.0 -7.972
806 202 1 0.0 3.986 1.993 -9.965
807 202 1 0.0 5.979 0.0 -9.965
808 202 1 0.0 5.979 1.993 -7.972
809 203 1 0.0 7.972 0.0 -7.972
810 203 1 0.0 7.972 1.993 -9.965
811 203 1 0.0 9.965 0.0 -9.965
812 203 1 0.0 9.965 1.993 -7.972
813 204 1 0.0 11.958 0.0 -7.972
814 204 1 0.0 11.958 1.993 -9.965
815 204 1 0.0 13.951 0.0 -9.965
816 204 1 0.0 13.951 1.993 -7.972
817 205 1 0.0 15.944 0.0 -7.972
818 205 1 0.0 15.944 1.993 -9.965
819 205 1 0.0 17.937 0.0 -9.965
820 205 1 0.0 17.937 1.993 -7.972
821 206 1 0.0 19.93 0.0 -7.972
822 206 1 0.0 19.93 1.993 -9.965
823 206 1 0.0 21.923 0.0 -9.965
824 206 1 0.0 21.923 1.993 -7.972
825 207 1 0.0 23.916 0.0 -7.972
826 207 1 0.0 23.916 1.993 -9.965
827 207 1 0.0 25.909 0.0 -9.965
828 207 1 0.0 25.909 1.993 -7.972
829 208 1 0.0 27.902 0.0 -7.972
830 208 1 0.0 27.902 1.993 -9.965
831 208 1 0.0 29.895 0.0 -9.965
832 208 1 0.0 29.895 1.993 -7.972
833 209 1 0.0 31.888 0.0 -7.972
834 209 1 0.0 31.888 1.993 -9.965
835 209 1 0.0 33.881 0.0 -9.965
836 209 1 0.0 33.881 1.993 -7.972
837 210 1 0.0 35.874 0.0 -7.972
838 210 1 0.0 35.874 1.993 -9.965
839 210 1 0.0 37.867000000000004 0.0 -9.965
840 210 1 0.0 37.867000000000004 1.993 -7.972
841 211 1 0.0 0.0 3.986 -7.972
842 211 1 0.0 0.0 5.979 -9.965
843 211 1 0.0 1.993 3.986 -9.965
844 211 1 0.0 1.993 5.979 -7.972
845 212 1 0.0 3.986 3.986 -7.972
846 212 1 0.0 3.986 5.979 -9.965
847 212 1 0.0 5.979 3.986 -9.965
848 212 1 0.0 5.979 5.979 -7.972
849 213 1 0.0 7.972 3.986 -7.972
850 213 1 0.0 7.972 5.979 -9.965
851 213 1 0.0 9.965 3.986 -9.965
852 213 1 0.0 9.965 5.979 -7.972
853 214 1 0.0 11.958 3.986 -7.972
854 214 1 0.0 11.958 5.979 -9.965
855 214 1 0.0 13.951 3.986 -9.965
856 214 1 0.0 13.951 5.979 -7.972
857 215 1 0.0 15.944 3.986 -7.972
858 215 1 0.0 15.944 5.979 -9.965
859 215 1 0.0 17.937 3.986 -9.965
860 215 1 0.0 17.937 5.979 -7.972
861 216 1 0.0 19.93 3.986 -7.972
862 216 1 0.0 19.93 5.979 -9.965
863 216 1 0.0 21.923 3.986 -9.965
864 216 1 0.0 21.923 5.979 -7.972
865 217 1 0.0 23.916 3.986 -7.972
866 217 1 0.0 23.916 5.979 -9.965
867 217 1 0.0 25.909 3.986 -9.965
868 217 1 0.0 25.909 5.979 -7.972
869 218 1 0.0 27.902 3.986 -7.972
870 218 1 0.0 27.902 5.979 -9.965
871 218 1 0.0 29.895 3.986 -9.965
872 218 1 0.0 29.895 5.979 -7.972
873 219 1 0.0 31.888 3.986 -7.972
874 219 1 0.0 31.888 5.979 -9.965
875 219 1 0.0 33.881 3.986 -9.965
876 219 1 0.0 33.881 5.979 -7.972
877 220 1 0.0 35.874 3.986 -7.972
878 220 1 0.0 35.874 5.979 -9.965