LAMMPS Description

     36000  atoms
     24000  bonds
     12000  angles
     0  dihedrals
     0  impropers

     2  atom types
     1  bond types
     1  angle types

  0.0 120.0 xlo xhi
  0.0 80.0 ylo yhi
  -50.0 130.0 zlo zhi

Masses

1 32.06  # 24
2 1.008  # 28

Atoms  # full

1 1 1 0.0 0.0 0.0 0.0
2 1 2 0.0 0.9616047 0.0 0.927476345
3 1 2 0.0 -0.9616047 0.0 0.927476345
4 2 1 0.0 4.0 0.0 0.0
5 2 2 0.0 4.9616047 0.0 0.927476345
6 2 2 0.0 3.0383953 0.0 0.927476345
7 3 1 0.0 8.0 0.0 0.0
8 3 2 0.0 8.9616047 0.0 0.927476345
9 3 2 0.0 7.0383953 0.0 0.927476345
10 4 1 0.0 12.0 0.0 0.0
11 4 2 0.0 12.9616047 0.0 0.927476345
12 4 2 0.0 11.0383953 0.0 0.927476345
13 5 1 0.0 16.0 0.0 0.0
14 5 2 0.0 16.9616047 0.0 0.927476345
15 5 2 0.0 15.0383953 0.0 0.927476345
16 6 1 0.0 20.0 0.0 0.0
17 6 2 0.0 20.9616047 0.0 0.927476345
18 6 2 0.0 19.0383953 0.0 0.927476345
19 7 1 0.0 24.0 0.0 0.0
20 7 2 0.0 24.9616047 0.0 0.927476345
21 7 2 0.0 23.0383953 0.0 0.927476345
22 8 1 0.0 28.0 0.0 0.0
23 8 2 0.0 28.9616047 0.0 0.927476345
24 8 2 0.0 27.0383953 0.0 0.927476345
25 9 1 0.0 32.0 0.0 0.0
26 9 2 0.0 32.9616047 0.0 0.927476345
27 9 2 0.0 31.0383953 0.0 0.927476345
28 10 1 0.0 36.0 0.0 0.0
29 10 2 0.0 36.9616047 0.0 0.927476345
30 10 2 0.0 35.0383953 0.0 0.927476345
31 11 1 0.0 40.0 0.0 0.0
32 11 2 0.0 40.9616047 0.0 0.927476345
33 11 2 0.0 39.0383953 0.0 0.927476345
34 12 1 0.0 44.0 0.0 0.0
35 12 2 0.0 44.9616047 0.0 0.927476345
36 12 2 0.0 43.0383953 0.0 0.927476345
37 13 1 0.0 48.0 0.0 0.0
38 13 2 0.0 48.9616047 0.0 0.927476345
39 13 2 0.0 47.0383953 0.0 0.927476345
40 14 1 0.0 52.0 0.0 0.0
41 14 2 0.0 52.9616047 0.0 0.927476345
42 14 2 0.0 51.0383953 0.0 0.927476345
43 15 1 0.0 56.0 0.0 0.0
44 15 2 0.0 56.9616047 0.0 0.927476345
45 15 2 0.0 55.0383953 0.0 0.927476345
46 16 1 0.0 60.0 0.0 0.0
47 16 2 0.0 60.9616047 0.0 0.927476345
48 16 2 0.0 59.0383953 0.0 0.927476345
49 17 1 0.0 64.0 0.0 0.0
50 17 2 0.0 64.9616047 0.0 0.927476345
51 17 2 0.0 63.0383953 0.0 0.927476345
52 18 1 0.0 68.0 0.0 0.0
53 18 2 0.0 68.9616047 0.0 0.927476345
54 18 2 0.0 67.0383953 0.0 0.927476345
55 19 1 0.0 72.0 0.0 0.0
56 19 2 0.0 72.9616047 0.0 0.927476345
57 19 2 0.0 71.0383953 0.0 0.927476345
58 20 1 0.0 76.0 0.0 0.0
59 20 2 0.0 76.9616047 0.0 0.927476345
60 20 2 0.0 75.0383953 0.0 0.927476345
61 21 1 0.0 80.0 0.0 0.0
62 21 2 0.0 80.9616047 0.0 0.927476345
63 21 2 0.0 79.0383953 0.0 0.927476345
64 22 1 0.0 84.0 0.0 0.0
65 22 2 0.0 84.9616047 0.0 0.927476345
66 22 2 0.0 83.0383953 0.0 0.927476345
67 23 1 0.0 88.0 0.0 0.0
68 23 2 0.0 88.9616047 0.0 0.927476345
69 23 2 0.0 87.0383953 0.0 0.927476345
70 24 1 0.0 92.0 0.0 0.0
71 24 2 0.0 92.9616047 0.0 0.927476345
72 24 2 0.0 91.0383953 0.0 0.927476345
73 25 1 0.0 96.0 0.0 0.0
74 25 2 0.0 96.9616047 0.0 0.927476345
75 25 2 0.0 95.0383953 0.0 0.927476345
76 26 1 0.0 100.0 0.0 0.0
77 26 2 0.0 100.9616047 0.0 0.927476345
78 26 2 0.0 99.0383953 0.0 0.927476345
79 27 1 0.0 104.0 0.0 0.0
80 27 2 0.0 104.9616047 0.0 0.927476345
81 27 2 0.0 103.0383953 0.0 0.927476345
82 28 1 0.0 108.0 0.0 0.0
83 28 2 0.0 108.9616047 0.0 0.927476345
84 28 2 0.0 107.0383953 0.0 0.927476345
85 29 1 0.0 112.0 0.0 0.0
86 29 2 0.0 112.9616047 0.0 0.927476345
87 29 2 0.0 111.0383953 0.0 0.927476345
88 30 1 0.0 116.0 0.0 0.0
89 30 2 0.0 116.9616047 0.0 0.927476345
90 30 2 0.0 115.0383953 0.0 0.927476345
91 31 1 0.0 0.0 4.0 0.0
92 31 2 0.0 0.9616047 4.0 0.927476345
93 31 2 0.0 -0.9616047 4.0 0.927476345
94 32 1 0.0 4.0 4.0 0.0
95 32 2 0.0 4.9616047 4.0 0.927476345
96 32 2 0.0 3.0383953 4.0 0.927476345
97 33 1 0.0 8.0 4.0 0.0
98 33 2 0.0 8.9616047 4.0 0.927476345
99 33 2 0.0 7.0383953 4.0 0.927476345
100 34 1 0.0 12.0 4.0 0.0
101 34 2 0.0 12.9616047 4.0 0.927476345
102 34 2 0.0 11.0383953 4.0 0.927476345
103 35 1 0.0 16.0 4.0 0.0
104 35 2 0.0 16.9616047 4.0 0.927476345
105 35 2 0.0 15.0383953 4.0 0.927476345
106 36 1 0.0 20.0 4.0 0.0
107 36 2 0.0 20.9616047 4.0 0.927476345
108 36 2 0.0 19.0383953 4.0 0.927476345
109 37 1 0.0 24.0 4.0 0.0
110 37 2 0.0 24.9616047 4.0 0.927476345
111 37 2 0.0 23.0383953 4.0 0.927476345
112 38 1 0.0 28.0 4.0 0.0
113 38 2 0.0 28.9616047 4.0 0.927476345
114 38 2 0.0 27.0383953 4.0 0.927476345
115 39 1 0.0 32.0 4.0 0.0
116 39 2 0.0 32.9616047 4.0 0.927476345
117 39 2 0.0 31.0383953 4.0 0.927476345
118 40 1 0.0 36.0 4.0 0.0
119 40 2 0.0 36.9616047 4.0 0.927476345
120 40 2 0.0 35.0383953 4.0 0.927476345
121 41 1 0.0 40.0 4.0 0.0
122 41 2 0.0 40.9616047 4.0 0.927476345
123 41 2 0.0 39.0383953 4.0 0.927476345
124 42 1 0.0 44.0 4.0 0.0
125 42 2 0.0 44.9616047 4.0 0.927476345
126 42 2 0.0 43.0383953 4.0 0.927476345
127 43 1 0.0 48.0 4.0 0.0
128 43 2 0.0 48.9616047 4.0 0.927476345
129 43 2 0.0 47.0383953 4.0 0.927476345
130 44 1 0.0 52.0 4.0 0.0
131 44 2 0.0 52.9616047 4.0 0.927476345
132 44 2 0.0 51.0383953 4.0 0.927476345
133 45 1 0.0 56.0 4.0 0.0
134 45 2 0.0 56.9616047 4.0 0.927476345
135 45 2 0.0 55.0383953 4.0 0.927476345
136 46 1 0.0 60.0 4.0 0.0
137 46 2 0.0 60.9616047 4.0 0.927476345
138 46 2 0.0 59.0383953 4.0 0.927476345
139 47 1 0.0 64.0 4.0 0.0
140 47 2 0.0 64.9616047 4.0 0.927476345
141 47 2 0.0 63.0383953 4.0 0.927476345
142 48 1 0.0 68.0 4.0 0.0
143 48 2 0.0 68.9616047 4.0 0.927476345
144 48 2 0.0 67.0383953 4.0 0.927476345
145 49 1 0.0 72.0 4.0 0.0
146 49 2 0.0 72.9616047 4.0 0.927476345
147 49 2 0.0 71.0383953 4.0 0.927476345
148 50 1 0.0 76.0 4.0 0.0
149 50 2 0.0 76.9616047 4.0 0.927476345
150 50 2 0.0 75.0383953 4.0 0.927476345
151 51 1 0.0 80.0 4.0 0.0
152 51 2 0.0 80.9616047 4.0 0.927476345
153 51 2 0.0 79.0383953 4.0 0.927476345
154 52 1 0.0 84.0 4.0 0.0
155 52 2 0.0 84.9616047 4.0 0.927476345
156 52 2 0.0 83.0383953 4.0 0.927476345
157 53 1 0.0 88.0 4.0 0.0
158 53 2 0.0 88.9616047 4.0 0.927476345
159 53 2 0.0 87.0383953 4.0 0.927476345
160 54 1 0.0 92.0 4.0 0.0
161 54 2 0.0 92.9616047 4.0 0.927476345
162 54 2 0.0 91.0383953 4.0 0.927476345
163 55 1 0.0 96.0 4.0 0.0
164 55 2 0.0 96.9616047 4.0 0.927476345
165 55 2 0.0 95.0383953 4.0 0.927476345
166 56 1 0.0 100.0 4.0 0.0
167 56 2 0.0 100.9616047 4.0 0.927476345
168 56 2 0.0 99.0383953 4.0 0.927476345
169 57 1 0.0 104.0 4.0 0.0
170 57 2 0.0 104.9616047 4.0 0.927476345
171 57 2 0.0 103.0383953 4.0 0.927476345
172 58 1 0.0 108.0 4.0 0.0
173 58 2 0.0 108.9616047 4.0 0.927476345
174 58 2 0.0 107.0383953 4.0 0.927476345
175 59 1 0.0 112.0 4.0 0.0
176 59 2 0.0 112.9616047 4.0 0.927476345
177 59 2 0.0 111.0383953 4.0 0.927476345
178 60 1 0.0 116.0 4.0 0.0
179 60 2 0.0 116.9616047 4.0 0.927476345
180 60 2 0.0 115.0383953 4.0 0.927476345
181 61 1 0.0 0.0 8.0 0.0
182 61 2 0.0 0.9616047 8.0 0.927476345
183 61 2 0.0 -0.9616047 8.0 0.927476345
184 62 1 0.0 4.0 8.0 0.0
185 62 2 0.0 4.9616047 8.0 0.927476345
186 62 2 0.0 3.0383953 8.0 0.927476345
187 63 1 0.0 8.0 8.0 0.0
188 63 2 0.0 8.9616047 8.0 0.927476345
189 63 2 0.0 7.0383953 8.0 0.927476345
190 64 1 0.0 12.0 8.0 0.0
191 64 2 0.0 12.9616047 8.0 0.927476345
192 64 2 0.0 11.0383953 8.0 0.927476345
193 65 1 0.0 16.0 8.0 0.0
194 65 2 0.0 16.9616047 8.0 0.927476345
195 65 2 0.0 15.0383953 8.0 0.927476345
196 66 1 0.0 20.0 8.0 0.0
197 66 2 0.0 20.9616047 8.0 0.927476345
198 66 2 0.0 19.0383953 8.0 0.927476345
199 67 1 0.0 24.0 8.0 0.0
200 67 2 0.0 24.9616047 8.0 0.927476345
201 67 2 0.0 23.0383953 8.0 0.927476345
202 68 1 0.0 28.0 8.0 0.0
203 68 2 0.0 28.9616047 8.0 0.927476345
204 68 2 0.0 27.0383953 8.0 0.927476345
205 69 1 0.0 32.0 8.0 0.0
206 69 2 0.0 32.9616047 8.0 0.927476345
207 69 2 0.0 31.0383953 8.0 0.927476345
208 70 1 0.0 36.0 8.0 0.0
209 70 2 0.0 36.9616047 8.0 0.927476345
210 70 2 0.0 35.0383953 8.0 0.927476345
211 71 1 0.0 40.0 8.0 0.0
212 71 2 0.0 40.9616047 8.0 0.927476345
213 71 2 0.0 39.0383953 8.0 0.927476345
214 72 1 0.0 44.0 8.0 0.0
215 72 2 0.0 44.9616047 8.0 0.927476345
216 72 2 0.0 43.0383953 8.0 0.927476345
217 73 1 0.0 48.0 8.0 0.0
218 73 2 0.0 48.9616047 8.0 0.927476345
219 73 2 0.0 47.0383953 8.0 0.927476345
220 74 1 0.0 52.0 8.0 0.0
221 74 2 0.0 52.9616047 8.0 0.927476345
222 74 2 0.0 51.0383953 8.0 0.927476345
223 75 1 0.0 56.0 8.0 0.0
224 75 2 0.0 56.9616047 8.0 0.927476345
225 75 2 0.0 55.0383953 8.0 0.927476345
226 76 1 0.0 60.0 8.0 0.0
227 76 2 0.0 60.9616047 8.0 0.927476345
228 76 2 0.0 59.0383953 8.0 0.927476345
229 77 1 0.0 64.0 8.0 0.0
230 77 2 0.0 64.9616047 8.0 0.927476345
231 77 2 0.0 63.0383953 8.0 0.927476345
232 78 1 0.0 68.0 8.0 0.0
233 78 2 0.0 68.9616047 8.0 0.927476345
234 78 2 0.0 67.0383953 8.0 0.927476345
235 79 1 0.0 72.0 8.0 0.0
236 79 2 0.0 72.9616047 8.0 0.927476345
237 79 2 0.0 71.0383953 8.0 0.927476345
238 80 1 0.0 76.0 8.0 0.0
239 80 2 0.0 76.9616047 8.0 0.927476345
240 80 2 0.0 75.0383953 8.0 0.927476345
241 81 1 0.0 80.0 8.0 0.0
242 81 2 0.0 80.9616047 8.0 0.927476345
243 81 2 0.0 79.0383953 8.0 0.927476345
244 82 1 0.0 84.0 8.0 0.0
245 82 2 0.0 84.9616047 8.0 0.927476345
246 82 2 0.0 83.0383953 8.0 0.927476345
247 83 1 0.0 88.0 8.0 0.0
248 83 2 0.0 88.9616047 8.0 0.927476345
249 83 2 0.0 87.0383953 8.0 0.927476345
250 84 1 0.0 92.0 8.0 0.0
251 84 2 0.0 92.9616047 8.0 0.927476345
252 84 2 0.0 91.0383953 8.0 0.927476345
253 85 1 0.0 96.0 8.0 0.0
254 85 2 0.0 96.9616047 8.0 0.927476345
255 85 2 0.0 95.0383953 8.0 0.927476345
256 86 1 0.0 100.0 8.0 0.0
257 86 2 0.0 100.9616047 8.0 0.927476345
258 86 2 0.0 99.0383953 8.0 0.927476345
259 87 1 0.0 104.0 8.0 0.0
260 87 2 0.0 104.9616047 8.0 0.927476345
261 87 2 0.0 103.0383953 8.0 0.927476345
262 88 1 0.0 108.0 8.0 0.0
263 88 2 0.0 108.9616047 8.0 0.927476345
264 88 2 0.0 107.0383953 8.0 0.927476345
265 89 1 0.0 112.0 8.0 0.0
266 89 2 0.0 112.9616047 8.0 0.927476345
267 89 2 0.0 111.0383953 8.0 0.927476345
268 90 1 0.0 116.0 8.0 0.0
269 90 2 0.0 116.9616047 8.0 0.927476345
270 90 2 0.0 115.0383953 8.0 0.927476345
271 91 1 0.0 0.0 12.0 0.0
272 91 2 0.0 0.9616047 12.0 0.927476345
273 91 2 0.0 -0.9616047 12.0 0.927476345
274 92 1 0.0 4.0 12.0 0.0
275 92 2 0.0 4.9616047 12.0 0.927476345
276 92 2 0.0 3.0383953 12.0 0.927476345
277 93 1 0.0 8.0 12.0 0.0
278 93 2 0.0 8.9616047 12.0 0.927476345
279 93 2 0.0 7.0383953 12.0 0.927476345
280 94 1 0.0 12.0 12.0 0.0
281 94 2 0.0 12.9616047 12.0 0.927476345
282 94 2 0.0 11.0383953 12.0 0.927476345
283 95 1 0.0 16.0 12.0 0.0
284 95 2 0.0 16.9616047 12.0 0.927476345
285 95 2 0.0 15.0383953 12.0 0.927476345
286 96 1 0.0 20.0 12.0 0.0
287 96 2 0.0 20.9616047 12.0 0.927476345
288 96 2 0.0 19.0383953 12.0 0.927476345
289 97 1 0.0 24.0 12.0 0.0
290 97 2 0.0 24.9616047 12.0 0.927476345
291 97 2 0.0 23.0383953 12.0 0.927476345
292 98 1 0.0 28.0 12.0 0.0
293 98 2 0.0 28.9616047 12.0 0.927476345
294 98 2 0.0 27.0383953 12.0 0.927476345
295 99 1 0.0 32.0 12.0 0.0
296 99 2 0.0 32.9616047 12.0 0.927476345
297 99 2 0.0 31.0383953 12.0 0.927476345
298 100 1 0.0 36.0 12.0 0.0
299 100 2 0.0 36.9616047 12.0 0.927476345
300 100 2 0.0 35.0383953 12.0 0.927476345
301 101 1 0.0 40.0 12.0 0.0
302 101 2 0.0 40.9616047 12.0 0.927476345
303 101 2 0.0 39.0383953 12.0 0.927476345
304 102 1 0.0 44.0 12.0 0.0
305 102 2 0.0 44.9616047 12.0 0.927476345
306 102 2 0.0 43.0383953 12.0 0.927476345
307 103 1 0.0 48.0 12.0 0.0
308 103 2 0.0 48.9616047 12.0 0.927476345
309 103 2 0.0 47.0383953 12.0 0.927476345
310 104 1 0.0 52.0 12.0 0.0
311 104 2 0.0 52.9616047 12.0 0.927476345
312 104 2 0.0 51.0383953 12.0 0.927476345
313 105 1 0.0 56.0 12.0 0.0
314 105 2 0.0 56.9616047 12.0 0.927476345
315 105 2 0.0 55.0383953 12.0 0.927476345
316 106 1 0.0 60.0 12.0 0.0
317 106 2 0.0 60.9616047 12.0 0.927476345
318 106 2 0.0 59.0383953 12.0 0.927476345
319 107 1 0.0 64.0 12.0 0.0
320 107 2 0.0 64.9616047 12.0 0.927476345
321 107 2 0.0 63.0383953 12.0 0.927476345
322 108 1 0.0 68.0 12.0 0.0
323 108 2 0.0 68.9616047 12.0 0.927476345
324 108 2 0.0 67.0383953 12.0 0.927476345
325 109 1 0.0 72.0 12.0 0.0
326 109 2 0.0 72.9616047 12.0 0.927476345
327 109 2 0.0 71.0383953 12.0 0.927476345
328 110 1 0.0 76.0 12.0 0.0
329 110 2 0.0 76.9616047 12.0 0.927476345
330 110 2 0.0 75.0383953 12.0 0.927476345
331 111 1 0.0 80.0 12.0 0.0
332 111 2 0.0 80.9616047 12.0 0.927476345
333 111 2 0.0 79.0383953 12.0 0.927476345
334 112 1 0.0 84.0 12.0 0.0
335 112 2 0.0 84.9616047 12.0 0.927476345
336 112 2 0.0 83.0383953 12.0 0.927476345
337 113 1 0.0 88.0 12.0 0.0
338 113 2 0.0 88.9616047 12.0 0.927476345
339 113 2 0.0 87.0383953 12.0 0.927476345
340 114 1 0.0 92.0 12.0 0.0
341 114 2 0.0 92.9616047 12.0 0.927476345
342 114 2 0.0 91.0383953 12.0 0.927476345
343 115 1 0.0 96.0 12.0 0.0
344 115 2 0.0 96.9616047 12.0 0.927476345
345 115 2 0.0 95.0383953 12.0 0.927476345
346 116 1 0.0 100.0 12.0 0.0
347 116 2 0.0 100.9616047 12.0 0.927476345
348 116 2 0.0 99.0383953 12.0 0.927476345
349 117 1 0.0 104.0 12.0 0.0
350 117 2 0.0 104.9616047 12.0 0.927476345
351 117 2 0.0 103.0383953 12.0 0.927476345
352 118 1 0.0 108.0 12.0 0.0
353 118 2 0.0 108.9616047 12.0 0.927476345
354 118 2 0.0 107.0383953 12.0 0.927476345
355 119 1 0.0 112.0 12.0 0.0
356 119 2 0.0 112.9616047 12.0 0.927476345
357 119 2 0.0 111.0383953 12.0 0.927476345
358 120 1 0.0 116.0 12.0 0.0
359 120 2 0.0 116.9616047 12.0 0.927476345
360 120 2 0.0 115.0383953 12.0 0.927476345
361 121 1 0.0 0.0 16.0 0.0
362 121 2 0.0 0.9616047 16.0 0.927476345
363 121 2 0.0 -0.9616047 16.0 0.927476345
364 122 1 0.0 4.0 16.0 0.0
365 122 2 0.0 4.9616047 16.0 0.927476345
366 122 2 0.0 3.0383953 16.0 0.927476345
367 123 1 0.0 8.0 16.0 0.0
368 123 2 0.0 8.9616047 16.0 0.927476345
369 123 2 0.0 7.0383953 16.0 0.927476345
370 124 1 0.0 12.0 16.0 0.0
371 124 2 0.0 12.9616047 16.0 0.927476345
372 124 2 0.0 11.0383953 16.0 0.927476345
373 125 1 0.0 16.0 16.0 0.0
374 125 2 0.0 16.9616047 16.0 0.927476345
375 125 2 0.0 15.0383953 16.0 0.927476345
376 126 1 0.0 20.0 16.0 0.0
377 126 2 0.0 20.9616047 16.0 0.927476345
378 126 2 0.0 19.0383953 16.0 0.927476345
379 127 1 0.0 24.0 16.0 0.0
380 127 2 0.0 24.9616047 16.0 0.927476345
381 127 2 0.0 23.0383953 16.0 0.927476345
382 128 1 0.0 28.0 16.0 0.0
383 128 2 0.0 28.9616047 16.0 0.927476345
384 128 2 0.0 27.0383953 16.0 0.927476345
385 129 1 0.0 32.0 16.0 0.0
386 129 2 0.0 32.9616047 16.0 0.927476345
387 129 2 0.0 31.0383953 16.0 0.927476345
388 130 1 0.0 36.0 16.0 0.0
389 130 2 0.0 36.9616047 16.0 0.927476345
390 130 2 0.0 35.0383953 16.0 0.927476345
391 131 1 0.0 40.0 16.0 0.0
392 131 2 0.0 40.9616047 16.0 0.927476345
393 131 2 0.0 39.0383953 16.0 0.927476345
394 132 1 0.0 44.0 16.0 0.0
395 132 2 0.0 44.9616047 16.0 0.927476345
396 132 2 0.0 43.0383953 16.0 0.927476345
397 133 1 0.0 48.0 16.0 0.0
398 133 2 0.0 48.9616047 16.0 0.927476345
399 133 2 0.0 47.0383953 16.0 0.927476345
400 134 1 0.0 52.0 16.0 0.0
401 134 2 0.0 52.9616047 16.0 0.927476345
402 134 2 0.0 51.0383953 16.0 0.927476345
403 135 1 0.0 56.0 16.0 0.0
404 135 2 0.0 56.9616047 16.0 0.927476345
405 135 2 0.0 55.0383953 16.0 0.927476345
406 136 1 0.0 60.0 16.0 0.0
407 136 2 0.0 60.9616047 16.0 0.927476345
408 136 2 0.0 59.0383953 16.0 0.927476345
409 137 1 0.0 64.0 16.0 0.0
410 137 2 0.0 64.9616047 16.0 0.927476345
411 137 2 0.0 63.0383953 16.0 0.927476345
412 138 1 0.0 68.0 16.0 0.0
413 138 2 0.0 68.9616047 16.0 0.927476345
414 138 2 0.0 67.0383953 16.0 0.927476345
415 139 1 0.0 72.0 16.0 0.0
416 139 2 0.0 72.9616047 16.0 0.927476345
417 139 2 0.0 71.0383953 16.0 0.927476345
418 140 1 0.0 76.0 16.0 0.0
419 140 2 0.0 76.9616047 16.0 0.927476345
420 140 2 0.0 75.0383953 16.0 0.927476345
421 141 1 0.0 80.0 16.0 0.0
422 141 2 0.0 80.9616047 16.0 0.927476345
423 141 2 0.0 79.0383953 16.0 0.927476345
424 142 1 0.0 84.0 16.0 0.0
425 142 2 0.0 84.9616047 16.0 0.927476345
426 142 2 0.0 83.0383953 16.0 0.927476345
427 143 1 0.0 88.0 16.0 0.0
428 143 2 0.0 88.9616047 16.0 0.927476345
429 143 2 0.0 87.0383953 16.0 0.927476345
430 144 1 0.0 92.0 16.0 0.0
431 144 2 0.0 92.9616047 16.0 0.927476345
432 144 2 0.0 91.0383953 16.0 0.927476345
433 145 1 0.0 96.0 16.0 0.0
434 145 2 0.0 96.9616047 16.0 0.927476345
435 145 2 0.0 95.0383953 16.0 0.927476345
436 146 1 0.0 100.0 16.0 0.0
437 146 2 0.0 100.9616047 16.0 0.927476345
438 146 2 0.0 99.0383953 16.0 0.927476345
439 147 1 0.0 104.0 16.0 0.0
440 147 2 0.0 104.9616047 16.0 0.927476345
441 147 2 0.0 103.0383953 16.0 0.927476345
442 148 1 0.0 108.0 16.0 0.0
443 148 2 0.0 108.9616047 16.0 0.927476345
444 148 2 0.0 107.0383953 16.0 0.927476345
445 149 1 0.0 112.0 16.0 0.0
446 149 2 0.0 112.9616047 16.0 0.927476345
447 149 2 0.0 111.0383953 16.0 0.927476345
448 150 1 0.0 116.0 16.0 0.0
449 150 2 0.0 116.9616047 16.0 0.927476345
450 150 2 0.0 115.0383953 16.0 0.927476345
451 151 1 0.0 0.0 20.0 0.0
452 151 2 0.0 0.9616047 20.0 0.927476345
453 151 2 0.0 -0.9616047 20.0 0.927476345
454 152 1 0.0 4.0 20.0 0.0
455 152 2 0.0 4.9616047 20.0 0.927476345
456 152 2 0.0 3.0383953 20.0 0.927476345
457 153 1 0.0 8.0 20.0 0.0
458 153 2 0.0 8.9616047 20.0 0.927476345
459 153 2 0.0 7.0383953 20.0 0.927476345
460 154 1 0.0 12.0 20.0 0.0
461 154 2 0.0 12.9616047 20.0 0.927476345
462 154 2 0.0 11.0383953 20.0 0.927476345
463 155 1 0.0 16.0 20.0 0.0
464 155 2 0.0 16.9616047 20.0 0.927476345
465 155 2 0.0 15.0383953 20.0 0.927476345
466 156 1 0.0 20.0 20.0 0.0
467 156 2 0.0 20.9616047 20.0 0.927476345
468 156 2 0.0 19.0383953 20.0 0.927476345
469 157 1 0.0 24.0 20.0 0.0
470 157 2 0.0 24.9616047 20.0 0.927476345
471 157 2 0.0 23.0383953 20.0 0.927476345
472 158 1 0.0 28.0 20.0 0.0
473 158 2 0.0 28.9616047 20.0 0.927476345
474 158 2 0.0 27.0383953 20.0 0.927476345
475 159 1 0.0 32.0 20.0 0.0
476 159 2 0.0 32.9616047 20.0 0.927476345
477 159 2 0.0 31.0383953 20.0 0.927476345
478 160 1 0.0 36.0 20.0 0.0
479 160 2 0.0 36.9616047 20.0 0.927476345
480 160 2 0.0 35.0383953 20.0 0.927476345
481 161 1 0.0 40.0 20.0 0.0
482 161 2 0.0 40.9616047 20.0 0.927476345
483 161 2 0.0 39.0383953 20.0 0.927476345
484 162 1 0.0 44.0 20.0 0.0
485 162 2 0.0 44.9616047 20.0 0.927476345
486 162 2 0.0 43.0383953 20.0 0.927476345
487 163 1 0.0 48.0 20.0 0.0
488 163 2 0.0 48.9616047 20.0 0.927476345
489 163 2 0.0 47.0383953 20.0 0.927476345
490 164 1 0.0 52.0 20.0 0.0
491 164 2 0.0 52.9616047 20.0 0.927476345
492 164 2 0.0 51.0383953 20.0 0.927476345
493 165 1 0.0 56.0 20.0 0.0
494 165 2 0.0 56.9616047 20.0 0.927476345
495 165 2 0.0 55.0383953 20.0 0.927476345
496 166 1 0.0 60.0 20.0 0.0
497 166 2 0.0 60.9616047 20.0 0.927476345
498 166 2 0.0 59.0383953 20.0 0.927476345
499 167 1 0.0 64.0 20.0 0.0
500 167 2 0.0 64.9616047 20.0 0.927476345
501 167 2 0.0 63.0383953 20.0 0.927476345
502 168 1 0.0 68.0 20.0 0.0
503 168 2 0.0 68.9616047 20.0 0.927476345
504 168 2 0.0 67.0383953 20.0 0.927476345
505 169 1 0.0 72.0 20.0 0.0
506 169 2 0.0 72.9616047 20.0 0.927476345
507 169 2 0.0 71.0383953 20.0 0.927476345
508 170 1 0.0 76.0 20.0 0.0
509 170 2 0.0 76.9616047 20.0 0.927476345
510 170 2 0.0 75.0383953 20.0 0.927476345
511 171 1 0.0 80.0 20.0 0.0
512 171 2 0.0 80.9616047 20.0 0.927476345
513 171 2 0.0 79.0383953 20.0 0.927476345
514 172 1 0.0 84.0 20.0 0.0
515 172 2 0.0 84.9616047 20.0 0.927476345
516 172 2 0.0 83.0383953 20.0 0.927476345
517 173 1 0.0 88.0 20.0 0.0
518 173 2 0.0 88.9616047 20.0 0.927476345
519 173 2 0.0 87.0383953 20.0 0.927476345
520 174 1 0.0 92.0 20.0 0.0
521 174 2 0.0 92.9616047 20.0 0.927476345
522 174 2 0.0 91.0383953 20.0 0.927476345
523 175 1 0.0 96.0 20.0 0.0
524 175 2 0.0 96.9616047 20.0 0.927476345
525 175 2 0.0 95.0383953 20.0 0.927476345
526 176 1 0.0 100.0 20.0 0.0
527 176 2 0.0 100.9616047 20.0 0.927476345
528 176 2 0.0 99.0383953 20.0 0.927476345
529 177 1 0.0 104.0 20.0 0.0
530 177 2 0.0 104.9616047 20.0 0.927476345
531 177 2 0.0 103.0383953 20.0 0.927476345
532 178 1 0.0 108.0 20.0 0.0
533 178 2 0.0 108.9616047 20.0 0.927476345
534 178 2 0.0 107.0383953 20.0 0.927476345
535 179 1 0.0 112.0 20.0 0.0
536 179 2 0.0 112.9616047 20.0 0.927476345
537 179 2 0.0 111.0383953 20.0 0.927476345
538 180 1 0.0 116.0 20.0 0.0
539 180 2 0.0 116.9616047 20.0 0.927476345
540 180 2 0.0 115.0383953 20.0 0.927476345
541 181 1 0.0 0.0 24.0 0.0
542 181 2 0.0 0.9616047 24.0 0.927476345
543 181 2 0.0 -0.9616047 24.0 0.927476345
544 182 1 0.0 4.0 24.0 0.0
545 182 2 0.0 4.9616047 24.0 0.927476345
546 182 2 0.0 3.0383953 24.0 0.927476345
547 183 1 0.0 8.0 24.0 0.0
548 183 2 0.0 8.9616047 24.0 0.927476345
549 183 2 0.0 7.0383953 24.0 0.927476345
550 184 1 0.0 12.0 24.0 0.0
551 184 2 0.0 12.9616047 24.0 0.927476345
552 184 2 0.0 11.0383953 24.0 0.927476345
553 185 1 0.0 16.0 24.0 0.0
554 185 2 0.0 16.9616047 24.0 0.927476345
555 185 2 0.0 15.0383953 24.0 0.927476345
556 186 1 0.0 20.0 24.0 0.0
557 186 2 0.0 20.9616047 24.0 0.927476345
558 186 2 0.0 19.0383953 24.0 0.927476345
559 187 1 0.0 24.0 24.0 0.0
560 187 2 0.0 24.9616047 24.0 0.927476345
561 187 2 0.0 23.0383953 24.0 0.927476345
562 188 1 0.0 28.0 24.0 0.0
563 188 2 0.0 28.9616047 24.0 0.927476345
564 188 2 0.0 27.0383953 24.0 0.927476345
565 189 1 0.0 32.0 24.0 0.0
566 189 2 0.0 32.9616047 24.0 0.927476345
567 189 2 0.0 31.0383953 24.0 0.927476345
568 190 1 0.0 36.0 24.0 0.0
569 190 2 0.0 36.9616047 24.0 0.927476345
570 190 2 0.0 35.0383953 24.0 0.927476345
571 191 1 0.0 40.0 24.0 0.0
572 191 2 0.0 40.9616047 24.0 0.927476345
573 191 2 0.0 39.0383953 24.0 0.927476345
574 192 1 0.0 44.0 24.0 0.0
575 192 2 0.0 44.9616047 24.0 0.927476345
576 192 2 0.0 43.0383953 24.0 0.927476345
577 193 1 0.0 48.0 24.0 0.0
578 193 2 0.0 48.9616047 24.0 0.927476345
579 193 2 0.0 47.0383953 24.0 0.927476345
580 194 1 0.0 52.0 24.0 0.0
581 194 2 0.0 52.9616047 24.0 0.927476345
582 194 2 0.0 51.0383953 24.0 0.927476345
583 195 1 0.0 56.0 24.0 0.0
584 195 2 0.0 56.9616047 24.0 0.927476345
585 195 2 0.0 55.0383953 24.0 0.927476345
586 196 1 0.0 60.0 24.0 0.0
587 196 2 0.0 60.9616047 24.0 0.927476345
588 196 2 0.0 59.0383953 24.0 0.927476345
589 197 1 0.0 64.0 24.0 0.0
590 197 2 0.0 64.9616047 24.0 0.927476345
591 197 2 0.0 63.0383953 24.0 0.927476345
592 198 1 0.0 68.0 24.0 0.0
593 198 2 0.0 68.9616047 24.0 0.927476345
594 198 2 0.0 67.0383953 24.0 0.927476345
595 199 1 0.0 72.0 24.0 0.0
596 199 2 0.0 72.9616047 24.0 0.927476345
597 199 2 0.0 71.0383953 24.0 0.927476345
598 200 1 0.0 76.0 24.0 0.0
599 200 2 0.0 76.9616047 24.0 0.927476345
600 200 2 0.0 75.0383953 24.0 0.927476345
601 201 1 0.0 80.0 24.0 0.0
602 201 2 0.0 80.9616047 24.0 0.927476345
603 201 2 0.0 79.0383953 24.0 0.927476345
604 202 1 0.0 84.0 24.0 0.0
605 202 2 0.0 84.9616047 24.0 0.927476345
606 202 2 0.0 83.0383953 24.0 0.927476345
607 203 1 0.0 88.0 24.0 0.0
608 203 2 0.0 88.9616047 24.0 0.927476345
609 203 2 0.0 87.0383953 24.0 0.927476345
610 204 1 0.0 92.0 24.0 0.0
611 204 2 0.0 92.9616047 24.0 0.927476345
612 204 2 0.0 91.0383953 24.0 0.927476345
613 205 1 0.0 96.0 24.0 0.0
614 205 2 0.0 96.9616047 24.0 0.927476345
615 205 2 0.0 95.0383953 24.0 0.927476345
616 206 1 0.0 100.0 24.0 0.0
617 206 2 0.0 100.9616047 24.0 0.927476345
618 206 2 0.0 99.0383953 24.0 0.927476345
619 207 1 0.0 104.0 24.0 0.0
620 207 2 0.0 104.9616047 24.0 0.927476345
621 207 2 0.0 103.0383953 24.0 0.927476345
622 208 1 0.0 108.0 24.0 0.0
623 208 2 0.0 108.9616047 24.0 0.927476345
624 208 2 0.0 107.0383953 24.0 0.927476345
625 209 1 0.0 112.0 24.0 0.0
626 209 2 0.0 112.9616047 24.0 0.927476345
627 209 2 0.0 111.0383953 24.0 0.927476345
628 210 1 0.0 116.0 24.0 0.0
629 210 2 0.0 116.9616047 24.0 0.927476345
630 210 2 0.0 115.0383953 24.0 0.927476345
631 211 1 0.0 0.0 28.0 0.0
632 211 2 0.0 0.9616047 28.0 0.927476345
633 211 2 0.0 -0.9616047 28.0 0.927476345
634 212 1 0.0 4.0 28.0 0.0
635 212 2 0.0 4.9616047 28.0 0.927476345
636 212 2 0.0 3.0383953 28.0 0.927476345
637 213 1 0.0 8.0 28.0 0.0
638 213 2 0.0 8.9616047 28.0 0.927476345
639 213 2 0.0 7.0383953 28.0 0.927476345
640 214 1 0.0 12.0 28.0 0.0
641 214 2 0.0 12.9616047 28.0 0.927476345
642 214 2 0.0 11.0383953 28.0 0.927476345
643 215 1 0.0 16.0 28.0 0.0
644 215 2 0.0 16.9616047 28.0 0.927476345
645 215 2 0.0 15.0383953 28.0 0.927476345
646 216 1 0.0 20.0 28.0 0.0
647 216 2 0.0 20.9616047 28.0 0.927476345
648 216 2 0.0 19.0383953 28.0 0.927476345
649 217 1 0.0 24.0 28.0 0.0
650 217 2 0.0 24.9616047 28.0 0.927476345
651 217 2 0.0 23.0383953 28.0 0.927476345
652 218 1 0.0 28.0 28.0 0.0
653 218 2 0.0 28.9616047 28.0 0.927476345
654 218 2 0.0 27.0383953 28.0 0.927476345
655 219 1 0.0 32.0 28.0 0.0
656 219 2 0.0 32.9616047 28.0 0.927476345
657 219 2 0.0 31.0383953 28.0 0.927476345
658 220 1 0.0 36.0 28.0 0.0
659 220 2 0.0 36.9616047 28.0 0.927476345
660 220 2 0.0 35.0383953 28.0 0.927476345
661 221 1 0.0 40.0 28.0 0.0
662 221 2 0.0 40.9616047 28.0 0.927476345
663 221 2 0.0 39.0383953 28.0 0.927476345
664 222 1 0.0 44.0 28.0 0.0
665 222 2 0.0 44.9616047 28.0 0.927476345
666 222 2 0.0 43.0383953 28.0 0.927476345
667 223 1 0.0 48.0 28.0 0.0
668 223 2 0.0 48.9616047 28.0 0.927476345
669 223 2 0.0 47.0383953 28.0 0.927476345
670 224 1 0.0 52.0 28.0 0.0
671 224 2 0.0 52.9616047 28.0 0.927476345
672 224 2 0.0 51.0383953 28.0 0.927476345
673 225 1 0.0 56.0 28.0 0.0
674 225 2 0.0 56.9616047 28.0 0.927476345
675 225 2 0.0 55.0383953 28.0 0.927476345
676 226 1 0.0 60.0 28.0 0.0
677 226 2 0.0 60.9616047 28.0 0.927476345
678 226 2 0.0 59.0383953 28.0 0.927476345
679 227 1 0.0 64.0 28.0 0.0
680 227 2 0.0 64.9616047 28.0 0.927476345
681 227 2 0.0 63.0383953 28.0 0.927476345
682 228 1 0.0 68.0 28.0 0.0
683 228 2 0.0 68.9616047 28.0 0.927476345
684 228 2 0.0 67.0383953 28.0 0.927476345
685 229 1 0.0 72.0 28.0 0.0
686 229 2 0.0 72.9616047 28.0 0.927476345
687 229 2 0.0 71.0383953 28.0 0.927476345
688 230 1 0.0 76.0 28.0 0.0
689 230 2 0.0 76.9616047 28.0 0.927476345
690 230 2 0.0 75.0383953 28.0 0.927476345
691 231 1 0.0 80.0 28.0 0.0
692 231 2 0.0 80.9616047 28.0 0.927476345
693 231 2 0.0 79.0383953 28.0 0.927476345
694 232 1 0.0 84.0 28.0 0.0
695 232 2 0.0 84.9616047 28.0 0.927476345
696 232 2 0.0 83.0383953 28.0 0.927476345
697 233 1 0.0 88.0 28.0 0.0
698 233 2 0.0 88.9616047 28.0 0.927476345
699 233 2 0.0 87.0383953 28.0 0.927476345
700 234 1 0.0 92.0 28.0 0.0
701 234 2 0.0 92.9616047 28.0 0.927476345
702 234 2 0.0 91.0383953 28.0 0.927476345
703 235 1 0.0 96.0 28.0 0.0
704 235 2 0.0 96.9616047 28.0 0.927476345
705 235 2 0.0 95.0383953 28.0 0.927476345
706 236 1 0.0 100.0 28.0 0.0
707 236 2 0.0 100.9616047 28.0 0.927476345
708 236 2 0.0 99.0383953 28.0 0.927476345
709 237 1 0.0 104.0 28.0 0.0
710 237 2 0.0 104.9616047 28.0 0.927476345
711 237 2 0.0 103.0383953 28.0 0.927476345
712 238 1 0.0 108.0 28.0 0.0
713 238 2 0.0 108.9616047 28.0 0.927476345
714 238 2 0.0 107.0383953 28.0 0.927476345
715 239 1 0.0 112.0 28.0 0.0
716 239 2 0.0 112.9616047 28.0 0.927476345
717 239 2 0.0 111.0383953 28.0 0.927476345
718 240 1 0.0 116.0 28.0 0.0
719 240 2 0.0 116.9616047 28.0 0.927476345
720 240 2 0.0 115.0383953 28.0 0.927476345
721 241 1 0.0 0.0 32.0 0.0
722 241 2 0.0 0.9616047 32.0 0.927476345
723 241 2 0.0 -0.9616047 32.0 0.927476345
724 242 1 0.0 4.0 32.0 0.0
725 242 2 0.0 4.9616047 32.0 0.927476345
726 242 2 0.0 3.0383953 32.0 0.927476345
727 243 1 0.0 8.0 32.0 0.0
728 243 2 0.0 8.9616047 32.0 0.927476345
729 243 2 0.0 7.0383953 32.0 0.927476345
730 244 1 0.0 12.0 32.0 0.0
731 244 2 0.0 12.9616047 32.0 0.927476345
732 244 2 0.0 11.0383953 32.0 0.927476345
733 245 1 0.0 16.0 32.0 0.0
734 245 2 0.0 16.9616047 32.0 0.927476345
735 245 2 0.0 15.0383953 32.0 0.927476345
736 246 1 0.0 20.0 32.0 0.0
737 246 2 0.0 20.9616047 32.0 0.927476345
738 246 2 0.0 19.0383953 32.0 0.927476345
739 247 1 0.0 24.0 32.0 0.0
740 247 2 0.0 24.9616047 32.0 0.927476345
741 247 2 0.0 23.0383953 32.0 0.927476345
742 248 1 0.0 28.0 32.0 0.0
743 248 2 0.0 28.9616047 32.0 0.927476345
744 248 2 0.0 27.0383953 32.0 0.927476345
745 249 1 0.0 32.0 32.0 0.0
746 249 2 0.0 32.9616047 32.0 0.927476345
747 249 2 0.0 31.0383953 32.0 0.927476345
748 250 1 0.0 36.0 32.0 0.0
749 250 2 0.0 36.9616047 32.0 0.927476345
750 250 2 0.0 35.0383953 32.0 0.927476345
751 251 1 0.0 40.0 32.0 0.0
752 251 2 0.0 40.9616047 32.0 0.927476345
753 251 2 0.0 39.0383953 32.0 0.927476345
754 252 1 0.0 44.0 32.0 0.0
755 252 2 0.0 44.9616047 32.0 0.927476345
756 252 2 0.0 43.0383953 32.0 0.927476345
757 253 1 0.0 48.0 32.0 0.0
758 253 2 0.0 48.9616047 32.0 0.927476345
759 253 2 0.0 47.0383953 32.0 0.927476345
760 254 1 0.0 52.0 32.0 0.0
761 254 2 0.0 52.9616047 32.0 0.927476345
762 254 2 0.0 51.0383953 32.0 0.927476345
763 255 1 0.0 56.0 32.0 0.0
764 255 2 0.0 56.9616047 32.0 0.927476345
765 255 2 0.0 55.0383953 32.0 0.927476345
766 256 1 0.0 60.0 32.0 0.0
767 256 2 0.0 60.9616047 32.0 0.927476345
768 256 2 0.0 59.0383953 32.0 0.927476345
769 257 1 0.0 64.0 32.0 0.0
770 257 2 0.0 64.9616047 32.0 0.927476345
771 257 2 0.0 63.0383953 32.0 0.927476345
772 258 1 0.0 68.0 32.0 0.0
773 258 2 0.0 68.9616047 32.0 0.927476345
774 258 2 0.0 67.0383953 32.0 0.927476345
775 259 1 0.0 72.0 32.0 0.0
776 259 2 0.0 72.9616047 32.0 0.927476345
777 259 2 0.0 71.0383953 32.0 0.927476345
778 260 1 0.0 76.0 32.0 0.0
779 260 2 0.0 76.9616047 32.0 0.927476345
780 260 2 0.0 75.0383953 32.0 0.927476345
781 261 1 0.0 80.0 32.0 0.0
782 261 2 0.0 80.9616047 32.0 0.927476345
783 261 2 0.0 79.0383953 32.0 0.927476345
784 262 1 0.0 84.0 32.0 0.0
785 262 2 0.0 84.9616047 32.0 0.927476345
786 262 2 0.0 83.0383953 32.0 0.927476345
787 263 1 0.0 88.0 32.0 0.0
788 263 2 0.0 88.9616047 32.0 0.927476345
789 263 2 0.0 87.0383953 32.0 0.927476345
790 264 1 0.0 92.0 32.0 0.0
791 264 2 0.0 92.9616047 32.0 0.927476345
792 264 2 0.0 91.0383953 32.0 0.927476345
793 265 1 0.0 96.0 32.0 0.0
794 265 2 0.0 96.9616047 32.0 0.927476345
795 265 2 0.0 95.0383953 32.0 0.927476345
796 266 1 0.0 100.0 32.0 0.0
797 266 2 0.0 100.9616047 32.0 0.927476345
798 266 2 0.0 99.0383953 32.0 0.927476345
799 267 1 0.0 104.0 32.0 0.0
800 267 2 0.0 104.9616047 32.0 0.927476345
801 267 2 0.0 103.0383953 32.0 0.927476345
802 268 1 0.0 108.0 32.0 0.0
803 268 2 0.0 108.9616047 32.0 0.927476345
804 268 2 0.0 107.0383953 32.0 0.927476345
805 269 1 0.0 112.0 32.0 0.0
806 269 2 0.0 112.9616047 32.0 0.927476345
807 269 2 0.0 111.0383953 32.0 0.927476345
808 270 1 0.0 116.0 32.0 0.0
809 270 2 0.0 116.9616047 32.0 0.927476345
810 270 2 0.0 115.0383953 32.0 0.927476345
811 271 1 0.0 0.0 36.0 0.0
812 271 2 0.0 0.9616047 36.0 0.927476345
813 271 2 0.0 -0.9616047 36.0 0.927476345