LAMMPS Description

     36864  atoms
     34560  bonds
     32256  angles
     29952  dihedrals
     0  impropers

     2  atom types
     2  bond types
     2  angle types
     2  dihedral types

  0.0 120.0 xlo xhi
  0.0 120.0 ylo yhi
  0.0 120.0 zlo zhi

Masses

1 15.035  # type10
2 14.027  # type13

Atoms  # full

1 1 2 0.0 1.54 0.4431163 0.0
2 1 2 0.0 3.08 0.4431163 0.0
3 1 2 0.0 4.62 0.4431163 0.0
4 1 2 0.0 6.16 0.4431163 0.0
5 1 2 0.0 7.7 0.4431163 0.0
6 1 2 0.0 9.24 0.4431163 0.0
7 1 2 0.0 10.78 0.4431163 0.0
8 1 2 0.0 12.32 0.4431163 0.0
9 1 2 0.0 13.86 0.4431163 0.0
10 1 2 0.0 15.4 0.4431163 0.0
11 1 2 0.0 16.94 0.4431163 0.0
12 1 2 0.0 18.48 0.4431163 0.0
13 1 2 0.0 20.02 0.4431163 0.0
14 1 2 0.0 21.56 0.4431163 0.0
15 1 1 0.0 0.0 0.4431163 0.0
16 1 1 0.0 23.1 0.4431163 0.0
17 2 2 0.0 31.54 0.4431163 0.0
18 2 2 0.0 33.08 0.4431163 0.0
19 2 2 0.0 34.62 0.4431163 0.0
20 2 2 0.0 36.16 0.4431163 0.0
21 2 2 0.0 37.7 0.4431163 0.0
22 2 2 0.0 39.24 0.4431163 0.0
23 2 2 0.0 40.78 0.4431163 0.0
24 2 2 0.0 42.32 0.4431163 0.0
25 2 2 0.0 43.86 0.4431163 0.0
26 2 2 0.0 45.4 0.4431163 0.0
27 2 2 0.0 46.94 0.4431163 0.0
28 2 2 0.0 48.48 0.4431163 0.0
29 2 2 0.0 50.02 0.4431163 0.0
30 2 2 0.0 51.56 0.4431163 0.0
31 2 1 0.0 30.0 0.4431163 0.0
32 2 1 0.0 53.1 0.4431163 0.0
33 3 2 0.0 61.54 0.4431163 0.0
34 3 2 0.0 63.08 0.4431163 0.0
35 3 2 0.0 64.62 0.4431163 0.0
36 3 2 0.0 66.16 0.4431163 0.0
37 3 2 0.0 67.7 0.4431163 0.0
38 3 2 0.0 69.24 0.4431163 0.0
39 3 2 0.0 70.78 0.4431163 0.0
40 3 2 0.0 72.32 0.4431163 0.0
41 3 2 0.0 73.86 0.4431163 0.0
42 3 2 0.0 75.4 0.4431163 0.0
43 3 2 0.0 76.94 0.4431163 0.0
44 3 2 0.0 78.48 0.4431163 0.0
45 3 2 0.0 80.02 0.4431163 0.0
46 3 2 0.0 81.56 0.4431163 0.0
47 3 1 0.0 60.0 0.4431163 0.0
48 3 1 0.0 83.1 0.4431163 0.0
49 4 2 0.0 91.54 0.4431163 0.0
50 4 2 0.0 93.08 0.4431163 0.0
51 4 2 0.0 94.62 0.4431163 0.0
52 4 2 0.0 96.16 0.4431163 0.0
53 4 2 0.0 97.7 0.4431163 0.0
54 4 2 0.0 99.24 0.4431163 0.0
55 4 2 0.0 100.78 0.4431163 0.0
56 4 2 0.0 102.32 0.4431163 0.0
57 4 2 0.0 103.86 0.4431163 0.0
58 4 2 0.0 105.4 0.4431163 0.0
59 4 2 0.0 106.94 0.4431163 0.0
60 4 2 0.0 108.48 0.4431163 0.0
61 4 2 0.0 110.02 0.4431163 0.0
62 4 2 0.0 111.56 0.4431163 0.0
63 4 1 0.0 90.0 0.4431163 0.0
64 4 1 0.0 113.1 0.4431163 0.0
65 5 2 0.0 1.54 5.4431163 0.0
66 5 2 0.0 3.08 5.4431163 0.0
67 5 2 0.0 4.62 5.4431163 0.0
68 5 2 0.0 6.16 5.4431163 0.0
69 5 2 0.0 7.7 5.4431163 0.0
70 5 2 0.0 9.24 5.4431163 0.0
71 5 2 0.0 10.78 5.4431163 0.0
72 5 2 0.0 12.32 5.4431163 0.0
73 5 2 0.0 13.86 5.4431163 0.0
74 5 2 0.0 15.4 5.4431163 0.0
75 5 2 0.0 16.94 5.4431163 0.0
76 5 2 0.0 18.48 5.4431163 0.0
77 5 2 0.0 20.02 5.4431163 0.0
78 5 2 0.0 21.56 5.4431163 0.0
79 5 1 0.0 0.0 5.4431163 0.0
80 5 1 0.0 23.1 5.4431163 0.0
81 6 2 0.0 31.54 5.4431163 0.0
82 6 2 0.0 33.08 5.4431163 0.0
83 6 2 0.0 34.62 5.4431163 0.0
84 6 2 0.0 36.16 5.4431163 0.0
85 6 2 0.0 37.7 5.4431163 0.0
86 6 2 0.0 39.24 5.4431163 0.0
87 6 2 0.0 40.78 5.4431163 0.0
88 6 2 0.0 42.32 5.4431163 0.0
89 6 2 0.0 43.86 5.4431163 0.0
90 6 2 0.0 45.4 5.4431163 0.0
91 6 2 0.0 46.94 5.4431163 0.0
92 6 2 0.0 48.48 5.4431163 0.0
93 6 2 0.0 50.02 5.4431163 0.0
94 6 2 0.0 51.56 5.4431163 0.0
95 6 1 0.0 30.0 5.4431163 0.0
96 6 1 0.0 53.1 5.4431163 0.0
97 7 2 0.0 61.54 5.4431163 0.0
98 7 2 0.0 63.08 5.4431163 0.0
99 7 2 0.0 64.62 5.4431163 0.0
100 7 2 0.0 66.16 5.4431163 0.0
101 7 2 0.0 67.7 5.4431163 0.0
102 7 2 0.0 69.24 5.4431163 0.0
103 7 2 0.0 70.78 5.4431163 0.0
104 7 2 0.0 72.32 5.4431163 0.0
105 7 2 0.0 73.86 5.4431163 0.0
106 7 2 0.0 75.4 5.4431163 0.0
107 7 2 0.0 76.94 5.4431163 0.0
108 7 2 0.0 78.48 5.4431163 0.0
109 7 2 0.0 80.02 5.4431163 0.0
110 7 2 0.0 81.56 5.4431163 0.0
111 7 1 0.0 60.0 5.4431163 0.0
112 7 1 0.0 83.1 5.4431163 0.0
113 8 2 0.0 91.54 5.4431163 0.0
114 8 2 0.0 93.08 5.4431163 0.0
115 8 2 0.0 94.62 5.4431163 0.0
116 8 2 0.0 96.16 5.4431163 0.0
117 8 2 0.0 97.7 5.4431163 0.0
118 8 2 0.0 99.24 5.4431163 0.0
119 8 2 0.0 100.78 5.4431163 0.0
120 8 2 0.0 102.32 5.4431163 0.0
121 8 2 0.0 103.86 5.4431163 0.0
122 8 2 0.0 105.4 5.4431163 0.0
123 8 2 0.0 106.94 5.4431163 0.0
124 8 2 0.0 108.48 5.4431163 0.0
125 8 2 0.0 110.02 5.4431163 0.0
126 8 2 0.0 111.56 5.4431163 0.0
127 8 1 0.0 90.0 5.4431163 0.0
128 8 1 0.0 113.1 5.4431163 0.0
129 9 2 0.0 1.54 10.4431163 0.0
130 9 2 0.0 3.08 10.4431163 0.0
131 9 2 0.0 4.62 10.4431163 0.0
132 9 2 0.0 6.16 10.4431163 0.0
133 9 2 0.0 7.7 10.4431163 0.0
134 9 2 0.0 9.24 10.4431163 0.0
135 9 2 0.0 10.78 10.4431163 0.0
136 9 2 0.0 12.32 10.4431163 0.0
137 9 2 0.0 13.86 10.4431163 0.0
138 9 2 0.0 15.4 10.4431163 0.0
139 9 2 0.0 16.94 10.4431163 0.0
140 9 2 0.0 18.48 10.4431163 0.0
141 9 2 0.0 20.02 10.4431163 0.0
142 9 2 0.0 21.56 10.4431163 0.0
143 9 1 0.0 0.0 10.4431163 0.0
144 9 1 0.0 23.1 10.4431163 0.0
145 10 2 0.0 31.54 10.4431163 0.0
146 10 2 0.0 33.08 10.4431163 0.0
147 10 2 0.0 34.62 10.4431163 0.0
148 10 2 0.0 36.16 10.4431163 0.0
149 10 2 0.0 37.7 10.4431163 0.0
150 10 2 0.0 39.24 10.4431163 0.0
151 10 2 0.0 40.78 10.4431163 0.0
152 10 2 0.0 42.32 10.4431163 0.0
153 10 2 0.0 43.86 10.4431163 0.0
154 10 2 0.0 45.4 10.4431163 0.0
155 10 2 0.0 46.94 10.4431163 0.0
156 10 2 0.0 48.48 10.4431163 0.0
157 10 2 0.0 50.02 10.4431163 0.0
158 10 2 0.0 51.56 10.4431163 0.0
159 10 1 0.0 30.0 10.4431163 0.0
160 10 1 0.0 53.1 10.4431163 0.0
161 11 2 0.0 61.54 10.4431163 0.0
162 11 2 0.0 63.08 10.4431163 0.0
163 11 2 0.0 64.62 10.4431163 0.0
164 11 2 0.0 66.16 10.4431163 0.0
165 11 2 0.0 67.7 10.4431163 0.0
166 11 2 0.0 69.24 10.4431163 0.0
167 11 2 0.0 70.78 10.4431163 0.0
168 11 2 0.0 72.32 10.4431163 0.0
169 11 2 0.0 73.86 10.4431163 0.0
170 11 2 0.0 75.4 10.4431163 0.0
171 11 2 0.0 76.94 10.4431163 0.0
172 11 2 0.0 78.48 10.4431163 0.0
173 11 2 0.0 80.02 10.4431163 0.0
174 11 2 0.0 81.56 10.4431163 0.0
175 11 1 0.0 60.0 10.4431163 0.0
176 11 1 0.0 83.1 10.4431163 0.0
177 12 2 0.0 91.54 10.4431163 0.0
178 12 2 0.0 93.08 10.4431163 0.0
179 12 2 0.0 94.62 10.4431163 0.0
180 12 2 0.0 96.16 10.4431163 0.0
181 12 2 0.0 97.7 10.4431163 0.0
182 12 2 0.0 99.24 10.4431163 0.0
183 12 2 0.0 100.78 10.4431163 0.0
184 12 2 0.0 102.32 10.4431163 0.0
185 12 2 0.0 103.86 10.4431163 0.0
186 12 2 0.0 105.4 10.4431163 0.0
187 12 2 0.0 106.94 10.4431163 0.0
188 12 2 0.0 108.48 10.4431163 0.0
189 12 2 0.0 110.02 10.4431163 0.0
190 12 2 0.0 111.56 10.4431163 0.0
191 12 1 0.0 90.0 10.4431163 0.0
192 12 1 0.0 113.1 10.4431163 0.0
193 13 2 0.0 1.54 15.4431163 0.0
194 13 2 0.0 3.08 15.4431163 0.0
195 13 2 0.0 4.62 15.4431163 0.0
196 13 2 0.0 6.16 15.4431163 0.0
197 13 2 0.0 7.7 15.4431163 0.0
198 13 2 0.0 9.24 15.4431163 0.0
199 13 2 0.0 10.78 15.4431163 0.0
200 13 2 0.0 12.32 15.4431163 0.0
201 13 2 0.0 13.86 15.4431163 0.0
202 13 2 0.0 15.4 15.4431163 0.0
203 13 2 0.0 16.94 15.4431163 0.0
204 13 2 0.0 18.48 15.4431163 0.0
205 13 2 0.0 20.02 15.4431163 0.0
206 13 2 0.0 21.56 15.4431163 0.0
207 13 1 0.0 0.0 15.4431163 0.0
208 13 1 0.0 23.1 15.4431163 0.0
209 14 2 0.0 31.54 15.4431163 0.0
210 14 2 0.0 33.08 15.4431163 0.0
211 14 2 0.0 34.62 15.4431163 0.0
212 14 2 0.0 36.16 15.4431163 0.0
213 14 2 0.0 37.7 15.4431163 0.0
214 14 2 0.0 39.24 15.4431163 0.0
215 14 2 0.0 40.78 15.4431163 0.0
216 14 2 0.0 42.32 15.4431163 0.0
217 14 2 0.0 43.86 15.4431163 0.0
218 14 2 0.0 45.4 15.4431163 0.0
219 14 2 0.0 46.94 15.4431163 0.0
220 14 2 0.0 48.48 15.4431163 0.0
221 14 2 0.0 50.02 15.4431163 0.0
222 14 2 0.0 51.56 15.4431163 0.0
223 14 1 0.0 30.0 15.4431163 0.0
224 14 1 0.0 53.1 15.4431163 0.0
225 15 2 0.0 61.54 15.4431163 0.0
226 15 2 0.0 63.08 15.4431163 0.0
227 15 2 0.0 64.62 15.4431163 0.0
228 15 2 0.0 66.16 15.4431163 0.0
229 15 2 0.0 67.7 15.4431163 0.0
230 15 2 0.0 69.24 15.4431163 0.0
231 15 2 0.0 70.78 15.4431163 0.0
232 15 2 0.0 72.32 15.4431163 0.0
233 15 2 0.0 73.86 15.4431163 0.0
234 15 2 0.0 75.4 15.4431163 0.0
235 15 2 0.0 76.94 15.4431163 0.0
236 15 2 0.0 78.48 15.4431163 0.0
237 15 2 0.0 80.02 15.4431163 0.0
238 15 2 0.0 81.56 15.4431163 0.0
239 15 1 0.0 60.0 15.4431163 0.0
240 15 1 0.0 83.1 15.4431163 0.0
241 16 2 0.0 91.54 15.4431163 0.0
242 16 2 0.0 93.08 15.4431163 0.0
243 16 2 0.0 94.62 15.4431163 0.0
244 16 2 0.0 96.16 15.4431163 0.0
245 16 2 0.0 97.7 15.4431163 0.0
246 16 2 0.0 99.24 15.4431163 0.0
247 16 2 0.0 100.78 15.4431163 0.0
248 16 2 0.0 102.32 15.4431163 0.0
249 16 2 0.0 103.86 15.4431163 0.0
250 16 2 0.0 105.4 15.4431163 0.0
251 16 2 0.0 106.94 15.4431163 0.0
252 16 2 0.0 108.48 15.4431163 0.0
253 16 2 0.0 110.02 15.4431163 0.0
254 16 2 0.0 111.56 15.4431163 0.0
255 16 1 0.0 90.0 15.4431163 0.0
256 16 1 0.0 113.1 15.4431163 0.0
257 17 2 0.0 1.54 20.4431163 0.0
258 17 2 0.0 3.08 20.4431163 0.0
259 17 2 0.0 4.62 20.4431163 0.0
260 17 2 0.0 6.16 20.4431163 0.0
261 17 2 0.0 7.7 20.4431163 0.0
262 17 2 0.0 9.24 20.4431163 0.0
263 17 2 0.0 10.78 20.4431163 0.0
264 17 2 0.0 12.32 20.4431163 0.0
265 17 2 0.0 13.86 20.4431163 0.0
266 17 2 0.0 15.4 20.4431163 0.0
267 17 2 0.0 16.94 20.4431163 0.0
268 17 2 0.0 18.48 20.4431163 0.0
269 17 2 0.0 20.02 20.4431163 0.0
270 17 2 0.0 21.56 20.4431163 0.0
271 17 1 0.0 0.0 20.4431163 0.0
272 17 1 0.0 23.1 20.4431163 0.0
273 18 2 0.0 31.54 20.4431163 0.0
274 18 2 0.0 33.08 20.4431163 0.0
275 18 2 0.0 34.62 20.4431163 0.0
276 18 2 0.0 36.16 20.4431163 0.0
277 18 2 0.0 37.7 20.4431163 0.0
278 18 2 0.0 39.24 20.4431163 0.0
279 18 2 0.0 40.78 20.4431163 0.0
280 18 2 0.0 42.32 20.4431163 0.0
281 18 2 0.0 43.86 20.4431163 0.0
282 18 2 0.0 45.4 20.4431163 0.0
283 18 2 0.0 46.94 20.4431163 0.0
284 18 2 0.0 48.48 20.4431163 0.0
285 18 2 0.0 50.02 20.4431163 0.0
286 18 2 0.0 51.56 20.4431163 0.0
287 18 1 0.0 30.0 20.4431163 0.0
288 18 1 0.0 53.1 20.4431163 0.0
289 19 2 0.0 61.54 20.4431163 0.0
290 19 2 0.0 63.08 20.4431163 0.0
291 19 2 0.0 64.62 20.4431163 0.0
292 19 2 0.0 66.16 20.4431163 0.0
293 19 2 0.0 67.7 20.4431163 0.0
294 19 2 0.0 69.24 20.4431163 0.0
295 19 2 0.0 70.78 20.4431163 0.0
296 19 2 0.0 72.32 20.4431163 0.0
297 19 2 0.0 73.86 20.4431163 0.0
298 19 2 0.0 75.4 20.4431163 0.0
299 19 2 0.0 76.94 20.4431163 0.0
300 19 2 0.0 78.48 20.4431163 0.0
301 19 2 0.0 80.02 20.4431163 0.0
302 19 2 0.0 81.56 20.4431163 0.0
303 19 1 0.0 60.0 20.4431163 0.0
304 19 1 0.0 83.1 20.4431163 0.0
305 20 2 0.0 91.54 20.4431163 0.0
306 20 2 0.0 93.08 20.4431163 0.0
307 20 2 0.0 94.62 20.4431163 0.0
308 20 2 0.0 96.16 20.4431163 0.0
309 20 2 0.0 97.7 20.4431163 0.0
310 20 2 0.0 99.24 20.4431163 0.0
311 20 2 0.0 100.78 20.4431163 0.0
312 20 2 0.0 102.32 20.4431163 0.0
313 20 2 0.0 103.86 20.4431163 0.0
314 20 2 0.0 105.4 20.4431163 0.0
315 20 2 0.0 106.94 20.4431163 0.0
316 20 2 0.0 108.48 20.4431163 0.0
317 20 2 0.0 110.02 20.4431163 0.0
318 20 2 0.0 111.56 20.4431163 0.0
319 20 1 0.0 90.0 20.4431163 0.0
320 20 1 0.0 113.1 20.4431163 0.0
321 21 2 0.0 1.54 25.4431163 0.0
322 21 2 0.0 3.08 25.4431163 0.0
323 21 2 0.0 4.62 25.4431163 0.0
324 21 2 0.0 6.16 25.4431163 0.0
325 21 2 0.0 7.7 25.4431163 0.0
326 21 2 0.0 9.24 25.4431163 0.0
327 21 2 0.0 10.78 25.4431163 0.0
328 21 2 0.0 12.32 25.4431163 0.0
329 21 2 0.0 13.86 25.4431163 0.0
330 21 2 0.0 15.4 25.4431163 0.0
331 21 2 0.0 16.94 25.4431163 0.0
332 21 2 0.0 18.48 25.4431163 0.0
333 21 2 0.0 20.02 25.4431163 0.0
334 21 2 0.0 21.56 25.4431163 0.0
335 21 1 0.0 0.0 25.4431163 0.0
336 21 1 0.0 23.1 25.4431163 0.0
337 22 2 0.0 31.54 25.4431163 0.0
338 22 2 0.0 33.08 25.4431163 0.0
339 22 2 0.0 34.62 25.4431163 0.0
340 22 2 0.0 36.16 25.4431163 0.0
341 22 2 0.0 37.7 25.4431163 0.0
342 22 2 0.0 39.24 25.4431163 0.0
343 22 2 0.0 40.78 25.4431163 0.0
344 22 2 0.0 42.32 25.4431163 0.0
345 22 2 0.0 43.86 25.4431163 0.0
346 22 2 0.0 45.4 25.4431163 0.0
347 22 2 0.0 46.94 25.4431163 0.0
348 22 2 0.0 48.48 25.4431163 0.0
349 22 2 0.0 50.02 25.4431163 0.0
350 22 2 0.0 51.56 25.4431163 0.0
351 22 1 0.0 30.0 25.4431163 0.0
352 22 1 0.0 53.1 25.4431163 0.0
353 23 2 0.0 61.54 25.4431163 0.0
354 23 2 0.0 63.08 25.4431163 0.0
355 23 2 0.0 64.62 25.4431163 0.0
356 23 2 0.0 66.16 25.4431163 0.0
357 23 2 0.0 67.7 25.4431163 0.0
358 23 2 0.0 69.24 25.4431163 0.0
359 23 2 0.0 70.78 25.4431163 0.0
360 23 2 0.0 72.32 25.4431163 0.0
361 23 2 0.0 73.86 25.4431163 0.0
362 23 2 0.0 75.4 25.4431163 0.0
363 23 2 0.0 76.94 25.4431163 0.0
364 23 2 0.0 78.48 25.4431163 0.0
365 23 2 0.0 80.02 25.4431163 0.0
366 23 2 0.0 81.56 25.4431163 0.0
367 23 1 0.0 60.0 25.4431163 0.0
368 23 1 0.0 83.1 25.4431163 0.0
369 24 2 0.0 91.54 25.4431163 0.0
370 24 2 0.0 93.08 25.4431163 0.0
371 24 2 0.0 94.62 25.4431163 0.0
372 24 2 0.0 96.16 25.4431163 0.0
373 24 2 0.0 97.7 25.4431163 0.0
374 24 2 0.0 99.24 25.4431163 0.0
375 24 2 0.0 100.78 25.4431163 0.0
376 24 2 0.0 102.32 25.4431163 0.0
377 24 2 0.0 103.86 25.4431163 0.0
378 24 2 0.0 105.4 25.4431163 0.0
379 24 2 0.0 106.94 25.4431163 0.0
380 24 2 0.0 108.48 25.4431163 0.0
381 24 2 0.0 110.02 25.4431163 0.0
382 24 2 0.0 111.56 25.4431163 0.0
383 24 1 0.0 90.0 25.4431163 0.0
384 24 1 0.0 113.1 25.4431163 0.0
385 25 2 0.0 1.54 30.4431163 0.0
386 25 2 0.0 3.08 30.4431163 0.0
387 25 2 0.0 4.62 30.4431163 0.0
388 25 2 0.0 6.16 30.4431163 0.0
389 25 2 0.0 7.7 30.4431163 0.0
390 25 2 0.0 9.24 30.4431163 0.0
391 25 2 0.0 10.78 30.4431163 0.0
392 25 2 0.0 12.32 30.4431163 0.0
393 25 2 0.0 13.86 30.4431163 0.0
394 25 2 0.0 15.4 30.4431163 0.0
395 25 2 0.0 16.94 30.4431163 0.0
396 25 2 0.0 18.48 30.4431163 0.0
397 25 2 0.0 20.02 30.4431163 0.0
398 25 2 0.0 21.56 30.4431163 0.0
399 25 1 0.0 0.0 30.4431163 0.0
400 25 1 0.0 23.1 30.4431163 0.0
401 26 2 0.0 31.54 30.4431163 0.0
402 26 2 0.0 33.08 30.4431163 0.0
403 26 2 0.0 34.62 30.4431163 0.0
404 26 2 0.0 36.16 30.4431163 0.0
405 26 2 0.0 37.7 30.4431163 0.0
406 26 2 0.0 39.24 30.4431163 0.0
407 26 2 0.0 40.78 30.4431163 0.0
408 26 2 0.0 42.32 30.4431163 0.0
409 26 2 0.0 43.86 30.4431163 0.0
410 26 2 0.0 45.4 30.4431163 0.0
411 26 2 0.0 46.94 30.4431163 0.0
412 26 2 0.0 48.48 30.4431163 0.0
413 26 2 0.0 50.02 30.4431163 0.0
414 26 2 0.0 51.56 30.4431163 0.0
415 26 1 0.0 30.0 30.4431163 0.0
416 26 1 0.0 53.1 30.4431163 0.0
417 27 2 0.0 61.54 30.4431163 0.0
418 27 2 0.0 63.08 30.4431163 0.0
419 27 2 0.0 64.62 30.4431163 0.0
420 27 2 0.0 66.16 30.4431163 0.0
421 27 2 0.0 67.7 30.4431163 0.0
422 27 2 0.0 69.24 30.4431163 0.0
423 27 2 0.0 70.78 30.4431163 0.0
424 27 2 0.0 72.32 30.4431163 0.0
425 27 2 0.0 73.86 30.4431163 0.0
426 27 2 0.0 75.4 30.4431163 0.0
427 27 2 0.0 76.94 30.4431163 0.0
428 27 2 0.0 78.48 30.4431163 0.0
429 27 2 0.0 80.02 30.4431163 0.0
430 27 2 0.0 81.56 30.4431163 0.0
431 27 1 0.0 60.0 30.4431163 0.0
432 27 1 0.0 83.1 30.4431163 0.0
433 28 2 0.0 91.54 30.4431163 0.0
434 28 2 0.0 93.08 30.4431163 0.0
435 28 2 0.0 94.62 30.4431163 0.0
436 28 2 0.0 96.16 30.4431163 0.0
437 28 2 0.0 97.7 30.4431163 0.0
438 28 2 0.0 99.24 30.4431163 0.0
439 28 2 0.0 100.78 30.4431163 0.0
440 28 2 0.0 102.32 30.4431163 0.0
441 28 2 0.0 103.86 30.4431163 0.0
442 28 2 0.0 105.4 30.4431163 0.0
443 28 2 0.0 106.94 30.4431163 0.0
444 28 2 0.0 108.48 30.4431163 0.0
445 28 2 0.0 110.02 30.4431163 0.0
446 28 2 0.0 111.56 30.4431163 0.0
447 28 1 0.0 90.0 30.4431163 0.0
448 28 1 0.0 113.1 30.4431163 0.0
449 29 2 0.0 1.54 35.4431163 0.0
450 29 2 0.0 3.08 35.4431163 0.0
451 29 2 0.0 4.62 35.4431163 0.0
452 29 2 0.0 6.16 35.4431163 0.0
453 29 2 0.0 7.7 35.4431163 0.0
454 29 2 0.0 9.24 35.4431163 0.0
455 29 2 0.0 10.78 35.4431163 0.0
456 29 2 0.0 12.32 35.4431163 0.0
457 29 2 0.0 13.86 35.4431163 0.0
458 29 2 0.0 15.4 35.4431163 0.0
459 29 2 0.0 16.94 35.4431163 0.0
460 29 2 0.0 18.48 35.4431163 0.0
461 29 2 0.0 20.02 35.4431163 0.0
462 29 2 0.0 21.56 35.4431163 0.0
463 29 1 0.0 0.0 35.4431163 0.0
464 29 1 0.0 23.1 35.4431163 0.0
465 30 2 0.0 31.54 35.4431163 0.0
466 30 2 0.0 33.08 35.4431163 0.0
467 30 2 0.0 34.62 35.4431163 0.0
468 30 2 0.0 36.16 35.4431163 0.0
469 30 2 0.0 37.7 35.4431163 0.0
470 30 2 0.0 39.24 35.4431163 0.0
471 30 2 0.0 40.78 35.4431163 0.0
472 30 2 0.0 42.32 35.4431163 0.0
473 30 2 0.0 43.86 35.4431163 0.0
474 30 2 0.0 45.4 35.4431163 0.0
475 30 2 0.0 46.94 35.4431163 0.0
476 30 2 0.0 48.48 35.4431163 0.0
477 30 2 0.0 50.02 35.4431163 0.0
478 30 2 0.0 51.56 35.4431163 0.0
479 30 1 0.0 30.0 35.4431163 0.0
480 30 1 0.0 53.1 35.4431163 0.0
481 31 2 0.0 61.54 35.4431163 0.0
482 31 2 0.0 63.08 35.4431163 0.0
483 31 2 0.0 64.62 35.4431163 0.0
484 31 2 0.0 66.16 35.4431163 0.0
485 31 2 0.0 67.7 35.4431163 0.0
486 31 2 0.0 69.24 35.4431163 0.0
487 31 2 0.0 70.78 35.4431163 0.0
488 31 2 0.0 72.32 35.4431163 0.0
489 31 2 0.0 73.86 35.4431163 0.0
490 31 2 0.0 75.4 35.4431163 0.0
491 31 2 0.0 76.94 35.4431163 0.0
492 31 2 0.0 78.48 35.4431163 0.0
493 31 2 0.0 80.02 35.4431163 0.0
494 31 2 0.0 81.56 35.4431163 0.0
495 31 1 0.0 60.0 35.4431163 0.0
496 31 1 0.0 83.1 35.4431163 0.0
497 32 2 0.0 91.54 35.4431163 0.0
498 32 2 0.0 93.08 35.4431163 0.0
499 32 2 0.0 94.62 35.4431163 0.0
500 32 2 0.0 96.16 35.4431163 0.0
501 32 2 0.0 97.7 35.4431163 0.0
502 32 2 0.0 99.24 35.4431163 0.0
503 32 2 0.0 100.78 35.4431163 0.0
504 32 2 0.0 102.32 35.4431163 0.0
505 32 2 0.0 103.86 35.4431163 0.0
506 32 2 0.0 105.4 35.4431163 0.0
507 32 2 0.0 106.94 35.4431163 0.0
508 32 2 0.0 108.48 35.4431163 0.0
509 32 2 0.0 110.02 35.4431163 0.0
510 32 2 0.0 111.56 35.4431163 0.0
511 32 1 0.0 90.0 35.4431163 0.0
512 32 1 0.0 113.1 35.4431163 0.0
513 33 2 0.0 1.54 40.4431163 0.0
514 33 2 0.0 3.08 40.4431163 0.0
515 33 2 0.0 4.62 40.4431163 0.0
516 33 2 0.0 6.16 40.4431163 0.0
517 33 2 0.0 7.7 40.4431163 0.0
518 33 2 0.0 9.24 40.4431163 0.0
519 33 2 0.0 10.78 40.4431163 0.0
520 33 2 0.0 12.32 40.4431163 0.0
521 33 2 0.0 13.86 40.4431163 0.0
522 33 2 0.0 15.4 40.4431163 0.0
523 33 2 0.0 16.94 40.4431163 0.0
524 33 2 0.0 18.48 40.4431163 0.0
525 33 2 0.0 20.02 40.4431163 0.0
526 33 2 0.0 21.56 40.4431163 0.0
527 33 1 0.0 0.0 40.4431163 0.0
528 33 1 0.0 23.1 40.4431163 0.0
529 34 2 0.0 31.54 40.4431163 0.0
530 34 2 0.0 33.08 40.4431163 0.0
531 34 2 0.0 34.62 40.4431163 0.0
532 34 2 0.0 36.16 40.4431163 0.0
533 34 2 0.0 37.7 40.4431163 0.0
534 34 2 0.0 39.24 40.4431163 0.0
535 34 2 0.0 40.78 40.4431163 0.0
536 34 2 0.0 42.32 40.4431163 0.0
537 34 2 0.0 43.86 40.4431163 0.0
538 34 2 0.0 45.4 40.4431163 0.0
539 34 2 0.0 46.94 40.4431163 0.0
540 34 2 0.0 48.48 40.4431163 0.0
541 34 2 0.0 50.02 40.4431163 0.0
542 34 2 0.0 51.56 40.4431163 0.0
543 34 1 0.0 30.0 40.4431163 0.0
544 34 1 0.0 53.1 40.4431163 0.0
545 35 2 0.0 61.54 40.4431163 0.0
546 35 2 0.0 63.08 40.4431163 0.0
547 35 2 0.0 64.62 40.4431163 0.0
548 35 2 0.0 66.16 40.4431163 0.0
549 35 2 0.0 67.7 40.4431163 0.0
550 35 2 0.0 69.24 40.4431163 0.0
551 35 2 0.0 70.78 40.4431163 0.0
552 35 2 0.0 72.32 40.4431163 0.0
553 35 2 0.0 73.86 40.4431163 0.0
554 35 2 0.0 75.4 40.4431163 0.0
555 35 2 0.0 76.94 40.4431163 0.0
556 35 2 0.0 78.48 40.4431163 0.0
557 35 2 0.0 80.02 40.4431163 0.0
558 35 2 0.0 81.56 40.4431163 0.0
559 35 1 0.0 60.0 40.4431163 0.0
560 35 1 0.0 83.1 40.4431163 0.0
561 36 2 0.0 91.54 40.4431163 0.0
562 36 2 0.0 93.08 40.4431163 0.0
563 36 2 0.0 94.62 40.4431163 0.0
564 36 2 0.0 96.16 40.4431163 0.0
565 36 2 0.0 97.7 40.4431163 0.0
566 36 2 0.0 99.24 40.4431163 0.0
567 36 2 0.0 100.78 40.4431163 0.0
568 36 2 0.0 102.32 40.4431163 0.0
569 36 2 0.0 103.86 40.4431163 0.0
570 36 2 0.0 105.4 40.4431163 0.0
571 36 2 0.0 106.94 40.4431163 0.0
572 36 2 0.0 108.48 40.4431163 0.0
573 36 2 0.0 110.02 40.4431163 0.0
574 36 2 0.0 111.56 40.4431163 0.0
575 36 1 0.0 90.0 40.4431163 0.0
576 36 1 0.0 113.1 40.4431163 0.0
577 37 2 0.0 1.54 45.4431163 0.0
578 37 2 0.0 3.08 45.4431163 0.0
579 37 2 0.0 4.62 45.4431163 0.0
580 37 2 0.0 6.16 45.4431163 0.0
581 37 2 0.0 7.7 45.4431163 0.0
582 37 2 0.0 9.24 45.4431163 0.0
583 37 2 0.0 10.78 45.4431163 0.0
584 37 2 0.0 12.32 45.4431163 0.0
585 37 2 0.0 13.86 45.4431163 0.0
586 37 2 0.0 15.4 45.4431163 0.0
587 37 2 0.0 16.94 45.4431163 0.0
588 37 2 0.0 18.48 45.4431163 0.0
589 37 2 0.0 20.02 45.4431163 0.0
590 37 2 0.0 21.56 45.4431163 0.0
591 37 1 0.0 0.0 45.4431163 0.0
592 37 1 0.0 23.1 45.4431163 0.0
593 38 2 0.0 31.54 45.4431163 0.0
594 38 2 0.0 33.08 45.4431163 0.0
595 38 2 0.0 34.62 45.4431163 0.0
596 38 2 0.0 36.16 45.4431163 0.0
597 38 2 0.0 37.7 45.4431163 0.0
598 38 2 0.0 39.24 45.4431163 0.0
599 38 2 0.0 40.78 45.4431163 0.0
600 38 2 0.0 42.32 45.4431163 0.0
601 38 2 0.0 43.86 45.4431163 0.0
602 38 2 0.0 45.4 45.4431163 0.0
603 38 2 0.0 46.94 45.4431163 0.0
604 38 2 0.0 48.48 45.4431163 0.0
605 38 2 0.0 50.02 45.4431163 0.0
606 38 2 0.0 51.56 45.4431163 0.0
607 38 1 0.0 30.0 45.4431163 0.0
608 38 1 0.0 53.1 45.4431163 0.0
609 39 2 0.0 61.54 45.4431163 0.0
610 39 2 0.0 63.08 45.4431163 0.0
611 39 2 0.0 64.62 45.4431163 0.0
612 39 2 0.0 66.16 45.4431163 0.0
613 39 2 0.0 67.7 45.4431163 0.0
614 39 2 0.0 69.24 45.4431163 0.0
615 39 2 0.0 70.78 45.4431163 0.0
616 39 2 0.0 72.32 45.4431163 0.0
617 39 2 0.0 73.86 45.4431163 0.0
618 39 2 0.0 75.4 45.4431163 0.0
619 39 2 0.0 76.94 45.4431163 0.0
620 39 2 0.0 78.48 45.4431163 0.0
621 39 2 0.0 80.02 45.4431163 0.0
622 39 2 0.0 81.56 45.4431163 0.0
623 39 1 0.0 60.0 45.4431163 0.0
624 39 1 0.0 83.1 45.4431163 0.0
625 40 2 0.0 91.54 45.4431163 0.0
626 40 2 0.0 93.08 45.4431163 0.0
627 40 2 0.0 94.62 45.4431163 0.0
628 40 2 0.0 96.16 45.4431163 0.0
629 40 2 0.0 97.7 45.4431163 0.0
630 40 2 0.0 99.24 45.4431163 0.0
631 40 2 0.0 100.78 45.4431163 0.0
632 40 2 0.0 102.32 45.4431163 0.0
633 40 2 0.0 103.86 45.4431163 0.0
634 40 2 0.0 105.4 45.4431163 0.0
635 40 2 0.0 106.94 45.4431163 0.0
636 40 2 0.0 108.48 45.4431163 0.0
637 40 2 0.0 110.02 45.4431163 0.0
638 40 2 0.0 111.56 45.4431163 0.0
639 40 1 0.0 90.0 45.4431163 0.0
640 40 1 0.0 113.1 45.4431163 0.0
641 41 2 0.0 1.54 50.4431163 0.0
642 41 2 0.0 3.08 50.4431163 0.0
643 41 2 0.0 4.62 50.4431163 0.0
644 41 2 0.0 6.16 50.4431163 0.0
645 41 2 0.0 7.7 50.4431163 0.0
646 41 2 0.0 9.24 50.4431163 0.0
647 41 2 0.0 10.78 50.4431163 0.0
648 41 2 0.0 12.32 50.4431163 0.0
649 41 2 0.0 13.86 50.4431163 0.0
650 41 2 0.0 15.4 50.4431163 0.0
651 41 2 0.0 16.94 50.4431163 0.0
652 41 2 0.0 18.48 50.4431163 0.0
653 41 2 0.0 20.02 50.4431163 0.0
654 41 2 0.0 21.56 50.4431163 0.0
655 41 1 0.0 0.0 50.4431163 0.0
656 41 1 0.0 23.1 50.4431163 0.0
657 42 2 0.0 31.54 50.4431163 0.0
658 42 2 0.0 33.08 50.4431163 0.0
659 42 2 0.0 34.62 50.4431163 0.0
660 42 2 0.0 36.16 50.4431163 0.0
661 42 2 0.0 37.7 50.4431163 0.0
662 42 2 0.0 39.24 50.4431163 0.0
663 42 2 0.0 40.78 50.4431163 0.0
664 42 2 0.0 42.32 50.4431163 0.0
665 42 2 0.0 43.86 50.4431163 0.0
666 42 2 0.0 45.4 50.4431163 0.0
667 42 2 0.0 46.94 50.4431163 0.0
668 42 2 0.0 48.48 50.4431163 0.0
669 42 2 0.0 50.02 50.4431163 0.0
670 42 2 0.0 51.56 50.4431163 0.0
671 42 1 0.0 30.0 50.4431163 0.0
672 42 1 0.0 53.1 50.4431163 0.0
673 43 2 0.0 61.54 50.4431163 0.0
674 43 2 0.0 63.08 50.4431163 0.0
675 43 2 0.0 64.62 50.4431163 0.0
676 43 2 0.0 66.16 50.4431163 0.0
677 43 2 0.0 67.7 50.4431163 0.0
678 43 2 0.0 69.24 50.4431163 0.0
679 43 2 0.0 70.78 50.4431163 0.0
680 43 2 0.0 72.32 50.4431163 0.0
681 43 2 0.0 73.86 50.4431163 0.0
682 43 2 0.0 75.4 50.4431163 0.0
683 43 2 0.0 76.94 50.4431163 0.0
684 43 2 0.0 78.48 50.4431163 0.0
685 43 2 0.0 80.02 50.4431163 0.0
686 43 2 0.0 81.56 50.4431163 0.0
687 43 1 0.0 60.0 50.4431163 0.0
688 43 1 0.0 83.1 50.4431163 0.0
689 44 2 0.0 91.54 50.4431163 0.0
690 44 2 0.0 93.08 50.4431163 0.0
691 44 2 0.0 94.62 50.4431163 0.0
692 44 2 0.0 96.16 50.4431163 0.0
693 44 2 0.0 97.7 50.4431163 0.0
694 44 2 0.0 99.24 50.4431163 0.0
695 44 2 0.0 100.78 50.4431163 0.0
696 44 2 0.0 102.32 50.4431163 0.0
697 44 2 0.0 103.86 50.4431163 0.0
698 44 2 0.0 105.4 50.4431163 0.0
699 44 2 0.0 106.94 50.4431163 0.0
700 44 2 0.0 108.48 50.4431163 0.0
701 44 2 0.0 110.02 50.4431163 0.0
702 44 2 0.0 111.56 50.4431163 0.0
703 44 1 0.0 90.0 50.4431163 0.0
704 44 1 0.0 113.1 50.4431163 0.0
705 45 2 0.0 1.54 55.4431163 0.0
706 45 2 0.0 3.08 55.4431163 0.0
707 45 2 0.0 4.62 55.4431163 0.0
708 45 2 0.0 6.16 55.4431163 0.0
709 45 2 0.0 7.7 55.4431163 0.0
710 45 2 0.0 9.24 55.4431163 0.0
711 45 2 0.0 10.78 55.4431163 0.0
712 45 2 0.0 12.32 55.4431163 0.0
713 45 2 0.0 13.86 55.4431163 0.0
714 45 2 0.0 15.4 55.4431163 0.0
715 45 2 0.0 16.94 55.4431163 0.0
716 45 2 0.0 18.48 55.4431163 0.0
717 45 2 0.0 20.02 55.4431163 0.0
718 45 2 0.0 21.56 55.4431163 0.0
719 45 1 0.0 0.0 55.4431163 0.0
720 45 1 0.0 23.1 55.4431163 0.0
721 46 2 0.0 31.54 55.4431163 0.0
722 46 2 0.0 33.08 55.4431163 0.0
723 46 2 0.0 34.62 55.4431163 0.0
724 46 2 0.0 36.16 55.4431163 0.0
725 46 2 0.0 37.7 55.4431163 0.0
726 46 2 0.0 39.24 55.4431163 0.0
727 46 2 0.0 40.78 55.4431163 0.0
728 46 2 0.0 42.32 55.4431163 0.0
729 46 2 0.0 43.86 55.4431163 0.0
730 46 2 0.0 45.4 55.4431163 0.0
731 46 2 0.0 46.94 55.4431163 0.0
732 46 2 0.0 48.48 55.4431163 0.0
733 46 2 0.0 50.02 55.4431163 0.0
734 46 2 0.0 51.56 55.4431163 0.0
735 46 1 0.0 30.0 55.4431163 0.0
736 46 1 0.0 53.1 55.4431163 0.0
737 47 2 0.0 61.54 55.4431163 0.0
738 47 2 0.0 63.08 55.4431163 0.0
739 47 2 0.0 64.62 55.4431163 0.0
740 47 2 0.0 66.16 55.4431163 0.0
741 47 2 0.0 67.7 55.4431163 0.0
742 47 2 0.0 69.24 55.4431163 0.0
743 47 2 0.0 70.78 55.4431163 0.0
744 47 2 0.0 72.32 55.4431163 0.0
745 47 2 0.0 73.86 55.4431163 0.0
746 47 2 0.0 75.4 55.4431163 0.0
747 47 2 0.0 76.94 55.4431163 0.0
748 47 2 0.0 78.48 55.4431163 0.0
749 47 2 0.0 80.02 55.4431163 0.0
750 47 2 0.0 81.56 55.4431163 0.0
751 47 1 0.0 60.0 55.4431163 0.0
752 47 1 0.0 83.1 55.4431163 0.0
753 48 2 0.0 91.54 55.4431163 0.0
754 48 2 0.0 93.08 55.4431163 0.0
755 48 2 0.0 94.62 55.4431163 0.0
756 48 2 0.0 96.16 55.4431163 0.0
757 48 2 0.0 97.7 55.4431163 0.0
758 48 2 0.0 99.24 55.4431163 0.0
759 48 2 0.0 100.78 55.4431163 0.0
760 48 2 0.0 102.32 55.4431163 0.0
761 48 2 0.0 103.86 55.4431163 0.0
762 48 2 0.0 105.4 55.4431163 0.0
763 48 2 0.0 106.94 55.4431163 0.0
764 48 2 0.0 108.48 55.4431163 0.0
765 48 2 0.0 110.02 55.4431163 0.0
766 48 2 0.0 111.56 55.4431163 0.0
767 48 1 0.0 90.0 55.4431163 0.0
768 48 1 0.0 113.1 55.4431163 0.0
769 49 2 0.0 1.54 60.4431163 0.0
770 49 2 0.0 3.08 60.4431163 0.0
771 49 2 0.0 4.62 60.4431163 0.0
772 49 2 0.0 6.16 60.4431163 0.0
773 49 2 0.0 7.7 60.4431163 0.0
774 49 2 0.0 9.24 60.4431163 0.0
775 49 2 0.0 10.78 60.4431163 0.0
776 49 2 0.0 12.32 60.4431163 0.0
777 49 2 0.0 13.86 60.4431163 0.0
778 49 2 0.0 15.4 60.4431163 0.0
779 49 2 0.0 16.94 60.4431163 0.0
780 49 2 0.0 18.48 60.4431163 0.0
781 49 2 0.0 20.02 60.4431163 0.0
782 49 2 0.0 21.56 60.4431163 0.0
783 49 1 0.0 0.0 60.4431163 0.0
784 49 1 0.0 23.1 60.4431163 0.0
785 50 2 0.0 31.54 60.4431163 0.0
786 50 2 0.0 33.08 60.4431163 0.0
787 50 2 0.0 34.62 60.4431163 0.0
788 50 2 0.0 36.16 60.4431163 0.0
789 50 2 0.0 37.7 60.4431163 0.0
790 50 2 0.0 39.24 60.4431163 0.0
791 50 2 0.0 40.78 60.4431163 0.0
792 50 2 0.0 42.32 60.4431163 0.0
793 50 2 0.0 43.86 60.4431163 0.0
794 50 2 0.0 45.4 60.4431163 0.0
795 50 2 0.0 46.94 60.4431163 0.0
796 50 2 0.0 48.48 60.4431163 0.0
797 50 2 0.0 50.02 60.4431163 0.0
798 50 2 0.0 51.56 60.4431163 0.0
799 50 1 0.0 30.0 60.4431163 0.0
800 50 1 0.0 53.1 60.4431163 0.0
801 51 2 0.0 61.54 60.4431163 0.0
802 51 2 0.0 63.08 60.4431163 0.0
803 51 2 0.0 64.62 60.4431163 0.0
804 51 2 0.0 66.16 60.4431163 0.0
805 51 2 0.0 67.7 60.4431163 0.0
806 51 2 0.0 69.24 60.4431163 0.0
807 51 2 0.0 70.78 60.4431163 0.0
808 51 2 0.0 72.32 60.4431163 0.0
809 51 2 0.0 73.86 60.4431163 0.0
810 51 2 0.0 75.4 60.4431163 0.0
811 51 2 0.0 76.94 60.4431163 0.0
812 51 2 0.0 78.48 60.4431163 0.0
813 51 2 0.0 80.02 60.4431163 0.0
814 51 2 0.0 81.56 60.4431163 0.0
815 51 1 0.0 60.0 60.4431163 0.0
816 51 1 0.0 83.1 60.4431163 0.0
817 52 2 0.0 91.54 60.4431163 0.0
818 52 2 0.0 93.08 60.4431163 0.0
819 52 2 0.0 94.62 60.4431163 0.0
820 52 2 0.0 96.16 60.4431163 0.0
821 52 2 0.0 97.7 60.4431163 0.0
822 52 2 0.0 99.24 60.4431163 0.0
823 52 2 0.0 100.78 60.4431163 0.0
824 52 2 0.0 102.32 60.4431163 0.0
825 52 2 0.0 103.86 60.4431163 0.0
826 52 2 0.0 105.4 60.4431163 0.0
827 52 2 0.0 106.94 60.4431163 0.0
828 52 2 0.0 108.48 60.4431163 0.0
829 52 2 0.0 110.02 60.4431163 0.0
830 52 2 0.0 111.56 60.4431163 0.0
831 52 1 0.0 90.0 60.4431163 0.0
832 52 1 0.0 113.1 60.4431163 0.0
833 53 2 0.0 1.54 65.4431163 0.0
834 53 2 0.0 3.08 65.4431163 0.0
835 53 2 0.0 4.62 65.4431163 0.0
836 53 2 0.0 6.16 65.4431163 0.0
837 53 2 0.0 7.7 65.4431163 0.0
838 53 2 0.0 9.24 65.4431163 0.0
839 53 2 0.0 10.78 65.4431163 0.0
840 53 2 0.0 12.32 65.4431163 0.0
841 53 2 0.0 13.86 65.4431163 0.0
842 53 2 0.0 15.4 65.4431163 0.0
843 53 2 0.0 16.94 65.4431163 0.0
844 53 2 0.0 18.48 65.4431163 0.0
845 53 2 0.0 20.02 65.4431163 0.0
846 53 2 0.0 21.56 65.4431163 0.0
847 53 1 0.0 0.0 65.4431163 0.0
848 53 1 0.0 23.1 65.4431163 0.0
849 54 2 0.0 31.54 65.4431163 0.0
850 54 2 0.0 33.08 65.4431163 0.0
851 54 2 0.0 34.62 65.4431163 0.0
852 54 2 0.0 36.16 65.4431163 0.0
853 54 2 0.0 37.7 65.4431163 0.0
854 54 2 0.0 39.24 65.4431163 0.0
855 54 2 0.0 40.78 65.4431163 0.0
856 54 2 0.0 42.32 65.4431163 0.0
857 54 2 0.0 43.86 65.4431163 0.0
858 54 2 0.0 45.4 65.4431163 0.0
859 54 2 0.0 46.94 65.4431163 0.0
860 54 2 0.0 48.48 65.4431163 0.0
861 54 2 0.0 50.02 65.4431163 0.0
862 54 2 0.0 51.56 65.4431163 0.0
863 54 1 0.0 30.0 65.4431163 0.0
864 54 1 0.0 53.1 65.4431163 0.0
865 55 2 0.0 61.54 65.4431163 0.0
866 55 2 0.0 63.08 65.4431163 0.0
867 55 2 0.0 64.62 65.4431163 0.0
868 55 2 0.0 66.16 65.4431163 0.0
869 55 2 0.0 67.7 65.4431163 0.0
870 55 2 0.0 69.24 65.4431163 0.0
871 55 2 0.0 70.78 65.4431163 0.0
872 55 2 0.0 72.32 65.4431163 0.0
873 55 2 0.0 73.86 65.4431163 0.0
874 55 2 0.0 75.4 65.4431163 0.0
875 55 2 0.0 76.94 65.4431163 0.0
876 55 2 0.0 78.48 65.4431163 0.0
877 55 2 0.0 80.02 65.4431163 0.0
878 55 2 0.0 81.56 65.4431163 0.0
879 55 1 0.0 60.0 65.4431163 0.0
880 55 1 0.0 83.1 65.4431163 0.0
881 56 2 0.0 91.54 65.4431163 0.0
882 56 2 0.0 93.08 65.4431163 0.0
883 56 2 0.0 94.62 65.4431163 0.0
884 56 2 0.0 96.16 65.4431163 0.0
885 56 2 0.0 97.7 65.4431163 0.0
886 56 2 0.0 99.24 65.4431163 0.0
887 56 2 0.0 100.78 65.4431163 0.0
888 56 2 0.0 102.32 65.4431163 0.0
889 56 2 0.0 103.86 65.4431163 0.0