LAMMPS Description

     5240  atoms
     1152  bonds
     0  angles
     0  dihedrals
     0  impropers

     3  atom types
     1  bond types

  0.0 7.2 xlo xhi
  -32.5 31.5 ylo yhi
  0.0 7.2 zlo zhi

Masses

    1 1.0
    2 1.0
    3 1.0

Atoms # bond

1 1 1 0.0 0.0 0.0
2 1 1 0.0 -0.6 0.6
3 1 1 0.6 0.0 0.6
4 1 1 0.6 -0.6 0.0
5 2 1 1.2 0.0 0.0
6 2 1 1.2 -0.6 0.6
7 2 1 1.8 0.0 0.6
8 2 1 1.8 -0.6 0.0
9 3 1 2.4 0.0 0.0
10 3 1 2.4 -0.6 0.6
11 3 1 3.0 0.0 0.6
12 3 1 3.0 -0.6 0.0
13 4 1 3.6 0.0 0.0
14 4 1 3.6 -0.6 0.6
15 4 1 4.2 0.0 0.6
16 4 1 4.2 -0.6 0.0
17 5 1 4.8 0.0 0.0
18 5 1 4.8 -0.6 0.6
19 5 1 5.4 0.0 0.6
20 5 1 5.4 -0.6 0.0
21 6 1 6.0 0.0 0.0
22 6 1 6.0 -0.6 0.6
23 6 1 6.6 0.0 0.6
24 6 1 6.6 -0.6 0.0
25 7 1 0.0 -1.2 0.0
26 7 1 0.0 -1.8 0.6
27 7 1 0.6 -1.2 0.6
28 7 1 0.6 -1.8 0.0
29 8 1 1.2 -1.2 0.0
30 8 1 1.2 -1.8 0.6
31 8 1 1.8 -1.2 0.6
32 8 1 1.8 -1.8 0.0
33 9 1 2.4 -1.2 0.0
34 9 1 2.4 -1.8 0.6
35 9 1 3.0 -1.2 0.6
36 9 1 3.0 -1.8 0.0
37 10 1 3.6 -1.2 0.0
38 10 1 3.6 -1.8 0.6
39 10 1 4.2 -1.2 0.6
40 10 1 4.2 -1.8 0.0
41 11 1 4.8 -1.2 0.0
42 11 1 4.8 -1.8 0.6
43 11 1 5.4 -1.2 0.6
44 11 1 5.4 -1.8 0.0
45 12 1 6.0 -1.2 0.0
46 12 1 6.0 -1.8 0.6
47 12 1 6.6 -1.2 0.6
48 12 1 6.6 -1.8 0.0
49 13 1 0.0 -2.4 0.0
50 13 1 0.0 -3.0 0.6
51 13 1 0.6 -2.4 0.6
52 13 1 0.6 -3.0 0.0
53 14 1 1.2 -2.4 0.0
54 14 1 1.2 -3.0 0.6
55 14 1 1.8 -2.4 0.6
56 14 1 1.8 -3.0 0.0
57 15 1 2.4 -2.4 0.0
58 15 1 2.4 -3.0 0.6
59 15 1 3.0 -2.4 0.6
60 15 1 3.0 -3.0 0.0
61 16 1 3.6 -2.4 0.0
62 16 1 3.6 -3.0 0.6
63 16 1 4.2 -2.4 0.6
64 16 1 4.2 -3.0 0.0
65 17 1 4.8 -2.4 0.0
66 17 1 4.8 -3.0 0.6
67 17 1 5.4 -2.4 0.6
68 17 1 5.4 -3.0 0.0
69 18 1 6.0 -2.4 0.0
70 18 1 6.0 -3.0 0.6
71 18 1 6.6 -2.4 0.6
72 18 1 6.6 -3.0 0.0
73 19 1 0.0 -3.6 0.0
74 19 1 0.0 -4.2 0.6
75 19 1 0.6 -3.6 0.6
76 19 1 0.6 -4.2 0.0
77 20 1 1.2 -3.6 0.0
78 20 1 1.2 -4.2 0.6
79 20 1 1.8 -3.6 0.6
80 20 1 1.8 -4.2 0.0
81 21 1 2.4 -3.6 0.0
82 21 1 2.4 -4.2 0.6
83 21 1 3.0 -3.6 0.6
84 21 1 3.0 -4.2 0.0
85 22 1 3.6 -3.6 0.0
86 22 1 3.6 -4.2 0.6
87 22 1 4.2 -3.6 0.6
88 22 1 4.2 -4.2 0.0
89 23 1 4.8 -3.6 0.0
90 23 1 4.8 -4.2 0.6
91 23 1 5.4 -3.6 0.6
92 23 1 5.4 -4.2 0.0
93 24 1 6.0 -3.6 0.0
94 24 1 6.0 -4.2 0.6
95 24 1 6.6 -3.6 0.6
96 24 1 6.6 -4.2 0.0
97 25 1 0.0 -4.8 0.0
98 25 1 0.0 -5.4 0.6
99 25 1 0.6 -4.8 0.6
100 25 1 0.6 -5.4 0.0
101 26 1 1.2 -4.8 0.0
102 26 1 1.2 -5.4 0.6
103 26 1 1.8 -4.8 0.6
104 26 1 1.8 -5.4 0.0
105 27 1 2.4 -4.8 0.0
106 27 1 2.4 -5.4 0.6
107 27 1 3.0 -4.8 0.6
108 27 1 3.0 -5.4 0.0
109 28 1 3.6 -4.8 0.0
110 28 1 3.6 -5.4 0.6
111 28 1 4.2 -4.8 0.6
112 28 1 4.2 -5.4 0.0
113 29 1 4.8 -4.8 0.0
114 29 1 4.8 -5.4 0.6
115 29 1 5.4 -4.8 0.6
116 29 1 5.4 -5.4 0.0
117 30 1 6.0 -4.8 0.0
118 30 1 6.0 -5.4 0.6
119 30 1 6.6 -4.8 0.6
120 30 1 6.6 -5.4 0.0
121 31 1 0.0 -6.0 0.0
122 31 1 0.0 -6.6 0.6
123 31 1 0.6 -6.0 0.6
124 31 1 0.6 -6.6 0.0
125 32 1 1.2 -6.0 0.0
126 32 1 1.2 -6.6 0.6
127 32 1 1.8 -6.0 0.6
128 32 1 1.8 -6.6 0.0
129 33 1 2.4 -6.0 0.0
130 33 1 2.4 -6.6 0.6
131 33 1 3.0 -6.0 0.6
132 33 1 3.0 -6.6 0.0
133 34 1 3.6 -6.0 0.0
134 34 1 3.6 -6.6 0.6
135 34 1 4.2 -6.0 0.6
136 34 1 4.2 -6.6 0.0
137 35 1 4.8 -6.0 0.0
138 35 1 4.8 -6.6 0.6
139 35 1 5.4 -6.0 0.6
140 35 1 5.4 -6.6 0.0
141 36 1 6.0 -6.0 0.0
142 36 1 6.0 -6.6 0.6
143 36 1 6.6 -6.0 0.6
144 36 1 6.6 -6.6 0.0
145 37 1 0.0 -7.2 0.0
146 37 1 0.0 -7.8 0.6
147 37 1 0.6 -7.2 0.6
148 37 1 0.6 -7.8 0.0
149 38 1 1.2 -7.2 0.0
150 38 1 1.2 -7.8 0.6
151 38 1 1.8 -7.2 0.6
152 38 1 1.8 -7.8 0.0
153 39 1 2.4 -7.2 0.0
154 39 1 2.4 -7.8 0.6
155 39 1 3.0 -7.2 0.6
156 39 1 3.0 -7.8 0.0
157 40 1 3.6 -7.2 0.0
158 40 1 3.6 -7.8 0.6
159 40 1 4.2 -7.2 0.6
160 40 1 4.2 -7.8 0.0
161 41 1 4.8 -7.2 0.0
162 41 1 4.8 -7.8 0.6
163 41 1 5.4 -7.2 0.6
164 41 1 5.4 -7.8 0.0
165 42 1 6.0 -7.2 0.0
166 42 1 6.0 -7.8 0.6
167 42 1 6.6 -7.2 0.6
168 42 1 6.6 -7.8 0.0
169 43 1 0.0 -8.4 0.0
170 43 1 0.0 -9.0 0.6
171 43 1 0.6 -8.4 0.6
172 43 1 0.6 -9.0 0.0
173 44 1 1.2 -8.4 0.0
174 44 1 1.2 -9.0 0.6
175 44 1 1.8 -8.4 0.6
176 44 1 1.8 -9.0 0.0
177 45 1 2.4 -8.4 0.0
178 45 1 2.4 -9.0 0.6
179 45 1 3.0 -8.4 0.6
180 45 1 3.0 -9.0 0.0
181 46 1 3.6 -8.4 0.0
182 46 1 3.6 -9.0 0.6
183 46 1 4.2 -8.4 0.6
184 46 1 4.2 -9.0 0.0
185 47 1 4.8 -8.4 0.0
186 47 1 4.8 -9.0 0.6
187 47 1 5.4 -8.4 0.6
188 47 1 5.4 -9.0 0.0
189 48 1 6.0 -8.4 0.0
190 48 1 6.0 -9.0 0.6
191 48 1 6.6 -8.4 0.6
192 48 1 6.6 -9.0 0.0
193 49 1 0.0 -9.6 0.0
194 49 1 0.0 -10.2 0.6
195 49 1 0.6 -9.6 0.6
196 49 1 0.6 -10.2 0.0
197 50 1 1.2 -9.6 0.0
198 50 1 1.2 -10.2 0.6
199 50 1 1.8 -9.6 0.6
200 50 1 1.8 -10.2 0.0
201 51 1 2.4 -9.6 0.0
202 51 1 2.4 -10.2 0.6
203 51 1 3.0 -9.6 0.6
204 51 1 3.0 -10.2 0.0
205 52 1 3.6 -9.6 0.0
206 52 1 3.6 -10.2 0.6
207 52 1 4.2 -9.6 0.6
208 52 1 4.2 -10.2 0.0
209 53 1 4.8 -9.6 0.0
210 53 1 4.8 -10.2 0.6
211 53 1 5.4 -9.6 0.6
212 53 1 5.4 -10.2 0.0
213 54 1 6.0 -9.6 0.0
214 54 1 6.0 -10.2 0.6
215 54 1 6.6 -9.6 0.6
216 54 1 6.6 -10.2 0.0
217 55 1 0.0 -10.8 0.0
218 55 1 0.0 -11.4 0.6
219 55 1 0.6 -10.8 0.6
220 55 1 0.6 -11.4 0.0
221 56 1 1.2 -10.8 0.0
222 56 1 1.2 -11.4 0.6
223 56 1 1.8 -10.8 0.6
224 56 1 1.8 -11.4 0.0
225 57 1 2.4 -10.8 0.0
226 57 1 2.4 -11.4 0.6
227 57 1 3.0 -10.8 0.6
228 57 1 3.0 -11.4 0.0
229 58 1 3.6 -10.8 0.0
230 58 1 3.6 -11.4 0.6
231 58 1 4.2 -10.8 0.6
232 58 1 4.2 -11.4 0.0
233 59 1 4.8 -10.8 0.0
234 59 1 4.8 -11.4 0.6
235 59 1 5.4 -10.8 0.6
236 59 1 5.4 -11.4 0.0
237 60 1 6.0 -10.8 0.0
238 60 1 6.0 -11.4 0.6
239 60 1 6.6 -10.8 0.6
240 60 1 6.6 -11.4 0.0
241 61 1 0.0 -12.0 0.0
242 61 1 0.0 -12.6 0.6
243 61 1 0.6 -12.0 0.6
244 61 1 0.6 -12.6 0.0
245 62 1 1.2 -12.0 0.0
246 62 1 1.2 -12.6 0.6
247 62 1 1.8 -12.0 0.6
248 62 1 1.8 -12.6 0.0
249 63 1 2.4 -12.0 0.0
250 63 1 2.4 -12.6 0.6
251 63 1 3.0 -12.0 0.6
252 63 1 3.0 -12.6 0.0
253 64 1 3.6 -12.0 0.0
254 64 1 3.6 -12.6 0.6
255 64 1 4.2 -12.0 0.6
256 64 1 4.2 -12.6 0.0
257 65 1 4.8 -12.0 0.0
258 65 1 4.8 -12.6 0.6
259 65 1 5.4 -12.0 0.6
260 65 1 5.4 -12.6 0.0
261 66 1 6.0 -12.0 0.0
262 66 1 6.0 -12.6 0.6
263 66 1 6.6 -12.0 0.6
264 66 1 6.6 -12.6 0.0
265 67 1 0.0 -13.2 0.0
266 67 1 0.0 -13.8 0.6
267 67 1 0.6 -13.2 0.6
268 67 1 0.6 -13.8 0.0
269 68 1 1.2 -13.2 0.0
270 68 1 1.2 -13.8 0.6
271 68 1 1.8 -13.2 0.6
272 68 1 1.8 -13.8 0.0
273 69 1 2.4 -13.2 0.0
274 69 1 2.4 -13.8 0.6
275 69 1 3.0 -13.2 0.6
276 69 1 3.0 -13.8 0.0
277 70 1 3.6 -13.2 0.0
278 70 1 3.6 -13.8 0.6
279 70 1 4.2 -13.2 0.6
280 70 1 4.2 -13.8 0.0
281 71 1 4.8 -13.2 0.0
282 71 1 4.8 -13.8 0.6
283 71 1 5.4 -13.2 0.6
284 71 1 5.4 -13.8 0.0
285 72 1 6.0 -13.2 0.0
286 72 1 6.0 -13.8 0.6
287 72 1 6.6 -13.2 0.6
288 72 1 6.6 -13.8 0.0
289 73 1 0.0 -14.4 0.0
290 73 1 0.0 -15.0 0.6
291 73 1 0.6 -14.4 0.6
292 73 1 0.6 -15.0 0.0
293 74 1 1.2 -14.4 0.0
294 74 1 1.2 -15.0 0.6
295 74 1 1.8 -14.4 0.6
296 74 1 1.8 -15.0 0.0
297 75 1 2.4 -14.4 0.0
298 75 1 2.4 -15.0 0.6
299 75 1 3.0 -14.4 0.6
300 75 1 3.0 -15.0 0.0
301 76 1 3.6 -14.4 0.0
302 76 1 3.6 -15.0 0.6
303 76 1 4.2 -14.4 0.6
304 76 1 4.2 -15.0 0.0
305 77 1 4.8 -14.4 0.0
306 77 1 4.8 -15.0 0.6
307 77 1 5.4 -14.4 0.6
308 77 1 5.4 -15.0 0.0
309 78 1 6.0 -14.4 0.0
310 78 1 6.0 -15.0 0.6
311 78 1 6.6 -14.4 0.6
312 78 1 6.6 -15.0 0.0
313 79 1 0.0 -15.6 0.0
314 79 1 0.0 -16.2 0.6
315 79 1 0.6 -15.6 0.6
316 79 1 0.6 -16.2 0.0
317 80 1 1.2 -15.6 0.0
318 80 1 1.2 -16.2 0.6
319 80 1 1.8 -15.6 0.6
320 80 1 1.8 -16.2 0.0
321 81 1 2.4 -15.6 0.0
322 81 1 2.4 -16.2 0.6
323 81 1 3.0 -15.6 0.6
324 81 1 3.0 -16.2 0.0
325 82 1 3.6 -15.6 0.0
326 82 1 3.6 -16.2 0.6
327 82 1 4.2 -15.6 0.6
328 82 1 4.2 -16.2 0.0
329 83 1 4.8 -15.6 0.0
330 83 1 4.8 -16.2 0.6
331 83 1 5.4 -15.6 0.6
332 83 1 5.4 -16.2 0.0
333 84 1 6.0 -15.6 0.0
334 84 1 6.0 -16.2 0.6
335 84 1 6.6 -15.6 0.6
336 84 1 6.6 -16.2 0.0
337 85 1 0.0 -16.8 0.0
338 85 1 0.0 -17.4 0.6
339 85 1 0.6 -16.8 0.6
340 85 1 0.6 -17.4 0.0
341 86 1 1.2 -16.8 0.0
342 86 1 1.2 -17.4 0.6
343 86 1 1.8 -16.8 0.6
344 86 1 1.8 -17.4 0.0
345 87 1 2.4 -16.8 0.0
346 87 1 2.4 -17.4 0.6
347 87 1 3.0 -16.8 0.6
348 87 1 3.0 -17.4 0.0
349 88 1 3.6 -16.8 0.0
350 88 1 3.6 -17.4 0.6
351 88 1 4.2 -16.8 0.6
352 88 1 4.2 -17.4 0.0
353 89 1 4.8 -16.8 0.0
354 89 1 4.8 -17.4 0.6
355 89 1 5.4 -16.8 0.6
356 89 1 5.4 -17.4 0.0
357 90 1 6.0 -16.8 0.0
358 90 1 6.0 -17.4 0.6
359 90 1 6.6 -16.8 0.6
360 90 1 6.6 -17.4 0.0
361 91 1 0.0 -18.0 0.0
362 91 1 0.0 -18.6 0.6
363 91 1 0.6 -18.0 0.6
364 91 1 0.6 -18.6 0.0
365 92 1 1.2 -18.0 0.0
366 92 1 1.2 -18.6 0.6
367 92 1 1.8 -18.0 0.6
368 92 1 1.8 -18.6 0.0
369 93 1 2.4 -18.0 0.0
370 93 1 2.4 -18.6 0.6
371 93 1 3.0 -18.0 0.6
372 93 1 3.0 -18.6 0.0
373 94 1 3.6 -18.0 0.0
374 94 1 3.6 -18.6 0.6
375 94 1 4.2 -18.0 0.6
376 94 1 4.2 -18.6 0.0
377 95 1 4.8 -18.0 0.0
378 95 1 4.8 -18.6 0.6
379 95 1 5.4 -18.0 0.6
380 95 1 5.4 -18.6 0.0
381 96 1 6.0 -18.0 0.0
382 96 1 6.0 -18.6 0.6
383 96 1 6.6 -18.0 0.6
384 96 1 6.6 -18.6 0.0
385 97 1 0.0 -19.2 0.0
386 97 1 0.0 -19.8 0.6
387 97 1 0.6 -19.2 0.6
388 97 1 0.6 -19.8 0.0
389 98 1 1.2 -19.2 0.0
390 98 1 1.2 -19.8 0.6
391 98 1 1.8 -19.2 0.6
392 98 1 1.8 -19.8 0.0
393 99 1 2.4 -19.2 0.0
394 99 1 2.4 -19.8 0.6
395 99 1 3.0 -19.2 0.6
396 99 1 3.0 -19.8 0.0
397 100 1 3.6 -19.2 0.0
398 100 1 3.6 -19.8 0.6
399 100 1 4.2 -19.2 0.6
400 100 1 4.2 -19.8 0.0
401 101 1 4.8 -19.2 0.0
402 101 1 4.8 -19.8 0.6
403 101 1 5.4 -19.2 0.6
404 101 1 5.4 -19.8 0.0
405 102 1 6.0 -19.2 0.0
406 102 1 6.0 -19.8 0.6
407 102 1 6.6 -19.2 0.6
408 102 1 6.6 -19.8 0.0
409 103 1 0.0 -20.4 0.0
410 103 1 0.0 -21.0 0.6
411 103 1 0.6 -20.4 0.6
412 103 1 0.6 -21.0 0.0
413 104 1 1.2 -20.4 0.0
414 104 1 1.2 -21.0 0.6
415 104 1 1.8 -20.4 0.6
416 104 1 1.8 -21.0 0.0
417 105 1 2.4 -20.4 0.0
418 105 1 2.4 -21.0 0.6
419 105 1 3.0 -20.4 0.6
420 105 1 3.0 -21.0 0.0
421 106 1 3.6 -20.4 0.0
422 106 1 3.6 -21.0 0.6
423 106 1 4.2 -20.4 0.6
424 106 1 4.2 -21.0 0.0
425 107 1 4.8 -20.4 0.0
426 107 1 4.8 -21.0 0.6
427 107 1 5.4 -20.4 0.6
428 107 1 5.4 -21.0 0.0
429 108 1 6.0 -20.4 0.0
430 108 1 6.0 -21.0 0.6
431 108 1 6.6 -20.4 0.6
432 108 1 6.6 -21.0 0.0
433 109 1 0.0 -21.6 0.0
434 109 1 0.0 -22.2 0.6
435 109 1 0.6 -21.6 0.6
436 109 1 0.6 -22.2 0.0
437 110 1 1.2 -21.6 0.0
438 110 1 1.2 -22.2 0.6
439 110 1 1.8 -21.6 0.6
440 110 1 1.8 -22.2 0.0
441 111 1 2.4 -21.6 0.0
442 111 1 2.4 -22.2 0.6
443 111 1 3.0 -21.6 0.6
444 111 1 3.0 -22.2 0.0
445 112 1 3.6 -21.6 0.0
446 112 1 3.6 -22.2 0.6
447 112 1 4.2 -21.6 0.6
448 112 1 4.2 -22.2 0.0
449 113 1 4.8 -21.6 0.0
450 113 1 4.8 -22.2 0.6
451 113 1 5.4 -21.6 0.6
452 113 1 5.4 -22.2 0.0
453 114 1 6.0 -21.6 0.0
454 114 1 6.0 -22.2 0.6
455 114 1 6.6 -21.6 0.6
456 114 1 6.6 -22.2 0.0
457 115 1 0.0 -22.8 0.0
458 115 1 0.0 -23.4 0.6
459 115 1 0.6 -22.8 0.6
460 115 1 0.6 -23.4 0.0
461 116 1 1.2 -22.8 0.0
462 116 1 1.2 -23.4 0.6
463 116 1 1.8 -22.8 0.6
464 116 1 1.8 -23.4 0.0
465 117 1 2.4 -22.8 0.0
466 117 1 2.4 -23.4 0.6
467 117 1 3.0 -22.8 0.6
468 117 1 3.0 -23.4 0.0
469 118 1 3.6 -22.8 0.0
470 118 1 3.6 -23.4 0.6
471 118 1 4.2 -22.8 0.6
472 118 1 4.2 -23.4 0.0
473 119 1 4.8 -22.8 0.0
474 119 1 4.8 -23.4 0.6
475 119 1 5.4 -22.8 0.6
476 119 1 5.4 -23.4 0.0
477 120 1 6.0 -22.8 0.0
478 120 1 6.0 -23.4 0.6
479 120 1 6.6 -22.8 0.6
480 120 1 6.6 -23.4 0.0
481 121 1 0.0 -24.0 0.0
482 121 1 0.0 -24.6 0.6
483 121 1 0.6 -24.0 0.6
484 121 1 0.6 -24.6 0.0
485 122 1 1.2 -24.0 0.0
486 122 1 1.2 -24.6 0.6
487 122 1 1.8 -24.0 0.6
488 122 1 1.8 -24.6 0.0
489 123 1 2.4 -24.0 0.0
490 123 1 2.4 -24.6 0.6
491 123 1 3.0 -24.0 0.6
492 123 1 3.0 -24.6 0.0
493 124 1 3.6 -24.0 0.0
494 124 1 3.6 -24.6 0.6
495 124 1 4.2 -24.0 0.6
496 124 1 4.2 -24.6 0.0
497 125 1 4.8 -24.0 0.0
498 125 1 4.8 -24.6 0.6
499 125 1 5.4 -24.0 0.6
500 125 1 5.4 -24.6 0.0
501 126 1 6.0 -24.0 0.0
502 126 1 6.0 -24.6 0.6
503 126 1 6.6 -24.0 0.6
504 126 1 6.6 -24.6 0.0
505 127 1 0.0 -25.2 0.0
506 127 1 0.0 -25.8 0.6
507 127 1 0.6 -25.2 0.6
508 127 1 0.6 -25.8 0.0
509 128 1 1.2 -25.2 0.0
510 128 1 1.2 -25.8 0.6
511 128 1 1.8 -25.2 0.6
512 128 1 1.8 -25.8 0.0
513 129 1 2.4 -25.2 0.0
514 129 1 2.4 -25.8 0.6
515 129 1 3.0 -25.2 0.6
516 129 1 3.0 -25.8 0.0
517 130 1 3.6 -25.2 0.0
518 130 1 3.6 -25.8 0.6
519 130 1 4.2 -25.2 0.6
520 130 1 4.2 -25.8 0.0
521 131 1 4.8 -25.2 0.0
522 131 1 4.8 -25.8 0.6
523 131 1 5.4 -25.2 0.6
524 131 1 5.4 -25.8 0.0
525 132 1 6.0 -25.2 0.0
526 132 1 6.0 -25.8 0.6
527 132 1 6.6 -25.2 0.6
528 132 1 6.6 -25.8 0.0
529 133 1 0.0 -26.4 0.0
530 133 1 0.0 -27.0 0.6
531 133 1 0.6 -26.4 0.6
532 133 1 0.6 -27.0 0.0
533 134 1 1.2 -26.4 0.0
534 134 1 1.2 -27.0 0.6
535 134 1 1.8 -26.4 0.6
536 134 1 1.8 -27.0 0.0
537 135 1 2.4 -26.4 0.0
538 135 1 2.4 -27.0 0.6
539 135 1 3.0 -26.4 0.6
540 135 1 3.0 -27.0 0.0
541 136 1 3.6 -26.4 0.0
542 136 1 3.6 -27.0 0.6
543 136 1 4.2 -26.4 0.6
544 136 1 4.2 -27.0 0.0
545 137 1 4.8 -26.4 0.0
546 137 1 4.8 -27.0 0.6
547 137 1 5.4 -26.4 0.6
548 137 1 5.4 -27.0 0.0
549 138 1 6.0 -26.4 0.0
550 138 1 6.0 -27.0 0.6
551 138 1 6.6 -26.4 0.6
552 138 1 6.6 -27.0 0.0
553 139 1 0.0 -27.6 0.0
554 139 1 0.0 -28.2 0.6
555 139 1 0.6 -27.6 0.6
556 139 1 0.6 -28.2 0.0
557 140 1 1.2 -27.6 0.0
558 140 1 1.2 -28.2 0.6
559 140 1 1.8 -27.6 0.6
560 140 1 1.8 -28.2 0.0
561 141 1 2.4 -27.6 0.0
562 141 1 2.4 -28.2 0.6
563 141 1 3.0 -27.6 0.6
564 141 1 3.0 -28.2 0.0
565 142 1 3.6 -27.6 0.0
566 142 1 3.6 -28.2 0.6
567 142 1 4.2 -27.6 0.6
568 142 1 4.2 -28.2 0.0
569 143 1 4.8 -27.6 0.0
570 143 1 4.8 -28.2 0.6
571 143 1 5.4 -27.6 0.6
572 143 1 5.4 -28.2 0.0
573 144 1 6.0 -27.6 0.0
574 144 1 6.0 -28.2 0.6
575 144 1 6.6 -27.6 0.6
576 144 1 6.6 -28.2 0.0
577 145 1 0.0 -28.8 0.0
578 145 1 0.0 -29.4 0.6
579 145 1 0.6 -28.8 0.6
580 145 1 0.6 -29.4 0.0
581 146 1 1.2 -28.8 0.0
582 146 1 1.2 -29.4 0.6
583 146 1 1.8 -28.8 0.6
584 146 1 1.8 -29.4 0.0
585 147 1 2.4 -28.8 0.0
586 147 1 2.4 -29.4 0.6
587 147 1 3.0 -28.8 0.6
588 147 1 3.0 -29.4 0.0
589 148 1 3.6 -28.8 0.0
590 148 1 3.6 -29.4 0.6
591 148 1 4.2 -28.8 0.6
592 148 1 4.2 -29.4 0.0
593 149 1 4.8 -28.8 0.0
594 149 1 4.8 -29.4 0.6
595 149 1 5.4 -28.8 0.6
596 149 1 5.4 -29.4 0.0
597 150 1 6.0 -28.8 0.0
598 150 1 6.0 -29.4 0.6
599 150 1 6.6 -28.8 0.6
600 150 1 6.6 -29.4 0.0
601 151 1 0.0 -30.0 0.0
602 151 1 0.0 -30.6 0.6
603 151 1 0.6 -30.0 0.6
604 151 1 0.6 -30.6 0.0
605 152 1 1.2 -30.0 0.0
606 152 1 1.2 -30.6 0.6
607 152 1 1.8 -30.0 0.6
608 152 1 1.8 -30.6 0.0
609 153 1 2.4 -30.0 0.0
610 153 1 2.4 -30.6 0.6
611 153 1 3.0 -30.0 0.6
612 153 1 3.0 -30.6 0.0
613 154 1 3.6 -30.0 0.0
614 154 1 3.6 -30.6 0.6
615 154 1 4.2 -30.0 0.6
616 154 1 4.2 -30.6 0.0
617 155 1 4.8 -30.0 0.0
618 155 1 4.8 -30.6 0.6
619 155 1 5.4 -30.0 0.6
620 155 1 5.4 -30.6 0.0
621 156 1 6.0 -30.0 0.0
622 156 1 6.0 -30.6 0.6
623 156 1 6.6 -30.0 0.6
624 156 1 6.6 -30.6 0.0
625 157 1 0.0 -31.2 0.0
626 157 1 0.0 -31.8 0.6
627 157 1 0.6 -31.2 0.6
628 157 1 0.6 -31.8 0.0
629 158 1 1.2 -31.2 0.0
630 158 1 1.2 -31.8 0.6
631 158 1 1.8 -31.2 0.6
632 158 1 1.8 -31.8 0.0
633 159 1 2.4 -31.2 0.0
634 159 1 2.4 -31.8 0.6
635 159 1 3.0 -31.2 0.6
636 159 1 3.0 -31.8 0.0
637 160 1 3.6 -31.2 0.0
638 160 1 3.6 -31.8 0.6
639 160 1 4.2 -31.2 0.6
640 160 1 4.2 -31.8 0.0
641 161 1 4.8 -31.2 0.0
642 161 1 4.8 -31.8 0.6
643 161 1 5.4 -31.2 0.6
644 161 1 5.4 -31.8 0.0
645 162 1 6.0 -31.2 0.0
646 162 1 6.0 -31.8 0.6
647 162 1 6.6 -31.2 0.6
648 162 1 6.6 -31.8 0.0
649 163 1 0.0 0.0 1.2
650 163 1 0.0 -0.6 1.8
651 163 1 0.6 0.0 1.8
652 163 1 0.6 -0.6 1.2
653 164 1 1.2 0.0 1.2
654 164 1 1.2 -0.6 1.8
655 164 1 1.8 0.0 1.8
656 164 1 1.8 -0.6 1.2
657 165 1 2.4 0.0 1.2
658 165 1 2.4 -0.6 1.8
659 165 1 3.0 0.0 1.8
660 165 1 3.0 -0.6 1.2
661 166 1 3.6 0.0 1.2
662 166 1 3.6 -0.6 1.8
663 166 1 4.2 0.0 1.8
664 166 1 4.2 -0.6 1.2
665 167 1 4.8 0.0 1.2
666 167 1 4.8 -0.6 1.8
667 167 1 5.4 0.0 1.8
668 167 1 5.4 -0.6 1.2
669 168 1 6.0 0.0 1.2
670 168 1 6.0 -0.6 1.8
671 168 1 6.6 0.0 1.8
672 168 1 6.6 -0.6 1.2
673 169 1 0.0 -1.2 1.2
674 169 1 0.0 -1.8 1.8
675 169 1 0.6 -1.2 1.8
676 169 1 0.6 -1.8 1.2
677 170 1 1.2 -1.2 1.2
678 170 1 1.2 -1.8 1.8
679 170 1 1.8 -1.2 1.8
680 170 1 1.8 -1.8 1.2
681 171 1 2.4 -1.2 1.2
682 171 1 2.4 -1.8 1.8
683 171 1 3.0 -1.2 1.8
684 171 1 3.0 -1.8 1.2
685 172 1 3.6 -1.2 1.2
686 172 1 3.6 -1.8 1.8
687 172 1 4.2 -1.2 1.8
688 172 1 4.2 -1.8 1.2
689 173 1 4.8 -1.2 1.2
690 173 1 4.8 -1.8 1.8
691 173 1 5.4 -1.2 1.8
692 173 1 5.4 -1.8 1.2
693 174 1 6.0 -1.2 1.2
694 174 1 6.0 -1.8 1.8
695 174 1 6.6 -1.2 1.8
696 174 1 6.6 -1.8 1.2
697 175 1 0.0 -2.4 1.2
698 175 1 0.0 -3.0 1.8
699 175 1 0.6 -2.4 1.8
700 175 1 0.6 -3.0 1.2
701 176 1 1.2 -2.4 1.2
702 176 1 1.2 -3.0 1.8
703 176 1 1.8 -2.4 1.8
704 176 1 1.8 -3.0 1.2
705 177 1 2.4 -2.4 1.2
706 177 1 2.4 -3.0 1.8
707 177 1 3.0 -2.4 1.8
708 177 1 3.0 -3.0 1.2
709 178 1 3.6 -2.4 1.2
710 178 1 3.6 -3.0 1.8
711 178 1 4.2 -2.4 1.8
712 178 1 4.2 -3.0 1.2
713 179 1 4.8 -2.4 1.2
714 179 1 4.8 -3.0 1.8
715 179 1 5.4 -2.4 1.8
716 179 1 5.4 -3.0 1.2
717 180 1 6.0 -2.4 1.2
718 180 1 6.0 -3.0 1.8
719 180 1 6.6 -2.4 1.8
720 180 1 6.6 -3.0 1.2
721 181 1 0.0 -3.6 1.2
722 181 1 0.0 -4.2 1.8
723 181 1 0.6 -3.6 1.8
724 181 1 0.6 -4.2 1.2
725 182 1 1.2 -3.6 1.2
726 182 1 1.2 -4.2 1.8
727 182 1 1.8 -3.6 1.8
728 182 1 1.8 -4.2 1.2
729 183 1 2.4 -3.6 1.2
730 183 1 2.4 -4.2 1.8
731 183 1 3.0 -3.6 1.8
732 183 1 3.0 -4.2 1.2
733 184 1 3.6 -3.6 1.2
734 184 1 3.6 -4.2 1.8
735 184 1 4.2 -3.6 1.8
736 184 1 4.2 -4.2 1.2
737 185 1 4.8 -3.6 1.2
738 185 1 4.8 -4.2 1.8
739 185 1 5.4 -3.6 1.8
740 185 1 5.4 -4.2 1.2
741 186 1 6.0 -3.6 1.2
742 186 1 6.0 -4.2 1.8
743 186 1 6.6 -3.6 1.8
744 186 1 6.6 -4.2 1.2
745 187 1 0.0 -4.8 1.2
746 187 1 0.0 -5.4 1.8
747 187 1 0.6 -4.8 1.8
748 187 1 0.6 -5.4 1.2
749 188 1 1.2 -4.8 1.2
750 188 1 1.2 -5.4 1.8
751 188 1 1.8 -4.8 1.8
752 188 1 1.8 -5.4 1.2
753 189 1 2.4 -4.8 1.2
754 189 1 2.4 -5.4 1.8
755 189 1 3.0 -4.8 1.8
756 189 1 3.0 -5.4 1.2
757 190 1 3.6 -4.8 1.2
758 190 1 3.6 -5.4 1.8
759 190 1 4.2 -4.8 1.8
760 190 1 4.2 -5.4 1.2
761 191 1 4.8 -4.8 1.2
762 191 1 4.8 -5.4 1.8
763 191 1 5.4 -4.8 1.8
764 191 1 5.4 -5.4 1.2
765 192 1 6.0 -4.8 1.2
766 192 1 6.0 -5.4 1.8
767 192 1 6.6 -4.8 1.8
768 192 1 6.6 -5.4 1.2
769 193 1 0.0 -6.0 1.2
770 193 1 0.0 -6.6 1.8
771 193 1 0.6 -6.0 1.8
772 193 1 0.6 -6.6 1.2
773 194 1 1.2 -6.0 1.2
774 194 1 1.2 -6.6 1.8
775 194 1 1.8 -6.0 1.8
776 194 1 1.8 -6.6 1.2
777 195 1 2.4 -6.0 1.2
778 195 1 2.4 -6.6 1.8
779 195 1 3.0 -6.0 1.8
780 195 1 3.0 -6.6 1.2
781 196 1 3.6 -6.0 1.2
782 196 1 3.6 -6.6 1.8
783 196 1 4.2 -6.0 1.8
784 196 1 4.2 -6.6 1.2
785 197 1 4.8 -6.0 1.2
786 197 1 4.8 -6.6 1.8
787 197 1 5.4 -6.0 1.8
788 197 1 5.4 -6.6 1.2
789 198 1 6.0 -6.0 1.2
790 198 1 6.0 -6.6 1.8
791 198 1 6.6 -6.0 1.8
792 198 1 6.6 -6.6 1.2
793 199 1 0.0 -7.2 1.2
794 199 1 0.0 -7.8 1.8
795 199 1 0.6 -7.2 1.8
796 199 1 0.6 -7.8 1.2
797 200 1 1.2 -7.2 1.2
798 200 1 1.2 -7.8 1.8
799 200 1 1.8 -7.2 1.8
800 200 1 1.8 -7.8 1.2
801 201 1 2.4 -7.2 1.2
802 201 1 2.4 -7.8 1.8
803 201 1 3.0 -7.2 1.8
804 201 1 3.0 -7.8 1.2
805 202 1 3.6 -7.2 1.2
806 202 1 3.6 -7.8 1.8
807 202 1 4.2 -7.2 1.8
808 202 1 4.2 -7.8 1.2
809 203 1 4.8 -7.2 1.2
810 203 1 4.8 -7.8 1.8
811 203 1 5.4 -7.2 1.8
812 203 1 5.4 -7.8 1.2
813 204 1 6.0 -7.2 1.2
814 204 1 6.0 -7.8 1.8
815 204 1 6.6 -7.2 1.8
816 204 1 6.6 -7.8 1.2
817 205 1 0.0 -8.4 1.2
818 205 1 0.0 -9.0 1.8
819 205 1 0.6 -8.4 1.8
820 205 1 0.6 -9.0 1.2
821 206 1 1.2 -8.4 1.2
822 206 1 1.2 -9.0 1.8
823 206 1 1.8 -8.4 1.8
824 206 1 1.8 -9.0 1.2
825 207 1 2.4 -8.4 1.2
826 207 1 2.4 -9.0 1.8
827 207 1 3.0 -8.4 1.8
828 207 1 3.0 -9.0 1.2
829 208 1 3.6 -8.4 1.2
830 208 1 3.6 -9.0 1.8
831 208 1 4.2 -8.4 1.8
832 208 1 4.2 -9.0 1.2
833 209 1 4.8 -8.4 1.2
834 209 1 4.8 -9.0 1.8
835 209 1 5.4 -8.4 1.8
836 209 1 5.4 -9.0 1.2
837 210 1 6.0 -8.4 1.2
838 210 1 6.0 -9.0 1.8
839 210 1 6.6 -8.4 1.8
840 210 1 6.6 -9.0 1.2
841 211 1 0.0 -9.6 1.2
842 211 1 0.0 -10.2 1.8
843 211 1 0.6 -9.6 1.8
844 211 1 0.6 -10.2 1.2
845 212 1 1.2 -9.6 1.2
846 212 1 1.2 -10.2 1.8
847 212 1 1.8 -9.6 1.8
848 212 1 1.8 -10.2 1.2
849 213 1 2.4 -9.6 1.2
850 213 1 2.4 -10.2 1.8
851 213 1 3.0 -9.6 1.8
852 213 1 3.0 -10.2 1.2
853 214 1 3.6 -9.6 1.2
854 214 1 3.6 -10.2 1.8
855 214 1 4.2 -9.6 1.8
856 214 1 4.2 -10.2 1.2
857 215 1 4.8 -9.6 1.2
858 215 1 4.8 -10.2 1.8
859 215 1 5.4 -9.6 1.8
860 215 1 5.4 -10.2 1.2
861 216 1 6.0 -9.6 1.2
862 216 1 6.0 -10.2 1.8
863 216 1 6.6 -9.6 1.8
864 216 1 6.6 -10.2 1.2
865 217 1 0.0 -10.8 1.2
866 217 1 0.0 -11.4 1.8
867 217 1 0.6 -10.8 1.8
868 217 1 0.6 -11.4 1.2
869 218 1 1.2 -10.8 1.2
870 218 1 1.2 -11.4 1.8
871 218 1 1.8 -10.8 1.8
872 218 1 1.8 -11.4 1.2
873 219 1 2.4 -10.8 1.2
874 219 1 2.4 -11.4 1.8
875 219 1 3.0 -10.8 1.8
876 219 1 3.0 -11.4 1.2
877 220 1 3.6 -10.8 1.2
878 220 1 3.6 -11.4 1.8
879 220 1 4.2 -10.8 1.8
880 220 1 4.2 -11.4 1.2
881 221 1 4.8 -10.8 1.2
882 221 1 4.8 -11.4 1.8
883 221 1 5.4 -10.8 1.8
884 221 1 5.4 -11.4 1.2
885 222 1 6.0 -10.8 1.2
886 222 1 6.0 -11.4 1.8
887 222 1 6.6 -10.8 1.8
888 222 1 6.6 -11.4 1.2
889 223 1 0.0 -12.0 1.2
890 223 1 0.0 -12.6 1.8
891 223 1 0.6 -12.0 1.8
892 223 1 0.6 -12.6 1.2
893 224 1 1.2 -12.0 1.2
894 224 1 1.2 -12.6 1.8
895 224 1 1.8 -12.0 1.8
896 224 1 1.8 -12.6 1.2
897 225 1 2.4 -12.0 1.2
898 225 1 2.4 -12.6 1.8
899 225 1 3.0 -12.0 1.8
900 225 1 3.0 -12.6 1.2
901 226 1 3.6 -12.0 1.2
902 226 1 3.6 -12.6 1.8
903 226 1 4.2 -12.0 1.8
904 226 1 4.2 -12.6 1.2
905 227 1 4.8 -12.0 1.2
906 227 1 4.8 -12.6 1.8
907 227 1 5.4 -12.0 1.8
908 227 1 5.4 -12.6 1.2
909 228 1 6.0 -12.0 1.2
910 228 1 6.0 -12.6 1.8
911 228 1 6.6 -12.0 1.8
912 228 1 6.6 -12.6 1.2
913 229 1 0.0 -13.2 1.2
914 229 1 0.0 -13.8 1.8
915 229 1 0.6 -13.2 1.8
916 229 1 0.6 -13.8 1.2
917 230 1 1.2 -13.2 1.2
918 230 1 1.2 -13.8 1.8
919 230 1 1.8 -13.2 1.8
920 230 1 1.8 -13.8 1.2
921 231 1 2.4 -13.2 1.2
922 231 1 2.4 -13.8 1.8
923 231 1 3.0 -13.2 1.8
924 231 1 3.0 -13.8 1.2
925 232 1 3.6 -13.2 1.2
926 232 1 3.6 -13.8 1.8
927 232 1 4.2 -13.2 1.8
928 232 1 4.2 -13.8 1.2
929 233 1 4.8 -13.2 1.2
930 233 1 4.8 -13.8 1.8
931 233 1 5.4 -13.2 1.8
932 233 1 5.4 -13.8 1.2
933 234 1 6.0 -13.2 1.2
934 234 1 6.0 -13.8 1.8
935 234 1 6.6 -13.2 1.8
936 234 1 6.6 -13.8 1.2
937 235 1 0.0 -14.4 1.2
938 235 1 0.0 -15.0 1.8
939 235 1 0.6 -14.4 1.8
940 235 1 0.6 -15.0 1.2
941 236 1 1.2 -14.4 1.2
942 236 1 1.2 -15.0 1.8
943 236 1 1.8 -14.4 1.8
944 236 1 1.8 -15.0 1.2
945 237 1 2.4 -14.4 1.2
946 237 1 2.4 -15.0 1.8
947 237 1 3.0 -14.4 1.8
948 237 1 3.0 -15.0 1.2
949 238 1 3.6 -14.4 1.2
950 238 1 3.6 -15.0 1.8
951 238 1 4.2 -14.4 1.8
952 238 1 4.2 -15.0 1.2
953 239 1 4.8 -14.4 1.2
954 239 1 4.8 -15.0 1.8
955 239 1 5.4 -14.4 1.8
956 239 1 5.4 -15.0 1.2
957 240 1 6.0 -14.4 1.2
958 240 1 6.0 -15.0 1.8
959 240 1 6.6 -14.4 1.8
960 240 1 6.6 -15.0 1.2
961 241 1 0.0 -15.6 1.2
962 241 1 0.0 -16.2 1.8
963 241 1 0.6 -15.6 1.8
964 241 1 0.6 -16.2 1.2
965 242 1 1.2 -15.6 1.2
966 242 1 1.2 -16.2 1.8
967 242 1 1.8 -15.6 1.8
968 242 1 1.8 -16.2 1.2
969 243 1 2.4 -15.6 1.2
970 243 1 2.4 -16.2 1.8
971 243 1 3.0 -15.6 1.8
972 243 1 3.0 -16.2 1.2
973 244 1 3.6 -15.6 1.2
974 244 1 3.6 -16.2 1.8
975 244 1 4.2 -15.6 1.8
976 244 1 4.2 -16.2 1.2
977 245 1 4.8 -15.6 1.2
978 245 1 4.8 -16.2 1.8
979 245 1 5.4 -15.6 1.8
980 245 1 5.4 -16.2 1.2
981 246 1 6.0 -15.6 1.2
982 246 1 6.0 -16.2 1.8
983 246 1 6.6 -15.6 1.8
984 246 1 6.6 -16.2 1.2
985 247 1 0.0 -16.8 1.2
986 247 1 0.0 -17.4 1.8
987 247 1 0.6 -16.8 1.8
988 247 1 0.6 -17.4 1.2
989 248 1 1.2 -16.8 1.2
990 248 1 1.2 -17.4 1.8
991 248 1 1.8 -16.8 1.8
992 248 1 1.8 -17.4 1.2
993 249 1 2.4 -16.8 1.2
994 249 1 2.4 -17.4 1.8
995 249 1 3.0 -16.8 1.8
996 249 1 3.0 -17.4 1.2
997 250 1 3.6 -16.8 1.2
998 250 1 3.6 -17.4 1.8
999 250 1 4.2 -16.8 1.8
1000 250 1 4.2 -17.4 1.2
1001 251 1 4.8 -16.8 1.2
1002 251 1 4.8 -17.4 1.8
1003 251 1 5.4 -16.8 1.8
1004 251 1 5.4 -17.4 1.2
1005 252 1 6.0 -16.8 1.2
1006 252 1 6.0 -17.4 1.8
1007 252 1 6.6 -16.8 1.8
1008 252 1 6.6 -17.4 1.2
1009 253 1 0.0 -18.0 1.2
1010 253 1 0.0 -18.6 1.8
1011 253 1 0.6 -18.0 1.8
1012 253 1 0.6 -18.6 1.2
1013 254 1 1.2 -18.0 1.2
1014 254 1 1.2 -18.6 1.8
1015 254 1 1.8 -18.0 1.8
1016 254 1 1.8 -18.6 1.2
1017 255 1 2.4 -18.0 1.2
1018 255 1 2.4 -18.6 1.8
1019 255 1 3.0 -18.0 1.8
1020 255 1 3.0 -18.6 1.2
1021 256 1 3.6 -18.0 1.2
1022 256 1 3.6 -18.6 1.8
1023 256 1 4.2 -18.0 1.8
1024 256 1 4.2 -18.6 1.2
1025 257 1 4.8 -18.0 1.2
1026 257 1 4.8 -18.6 1.8
1027 257 1 5.4 -18.0 1.8
1028 257 1 5.4 -18.6 1.2
1029 258 1 6.0 -18.0 1.2
1030 258 1 6.0 -18.6 1.8
1031 258 1 6.6 -18.0 1.8
1032 258 1 6.6 -18.6 1.2
1033 259 1 0.0 -19.2 1.2
1034 259 1 0.0 -19.8 1.8
1035 259 1 0.6 -19.2 1.8
1036 259 1 0.6 -19.8 1.2
1037 260 1 1.2 -19.2 1.2
1038 260 1 1.2 -19.8 1.8
1039 260 1 1.8 -19.2 1.8
1040 260 1 1.8 -19.8 1.2
1041 261 1 2.4 -19.2 1.2
1042 261 1 2.4 -19.8 1.8
1043 261 1 3.0 -19.2 1.8
1044 261 1 3.0 -19.8 1.2
1045 262 1 3.6 -19.2 1.2
1046 262 1 3.6 -19.8 1.8
1047 262 1 4.2 -19.2 1.8
1048 262 1 4.2 -19.8 1.2
1049 263 1 4.8 -19.2 1.2
1050 263 1 4.8 -19.8 1.8
1051 263 1 5.4 -19.2 1.8
1052 263 1 5.4 -19.8 1.2
1053 264 1 6.0 -19.2 1.2
1054 264 1 6.0 -19.8 1.8
1055 264 1 6.6 -19.2 1.8
1056 264 1 6.6 -19.8 1.2
1057 265 1 0.0 -20.4 1.2
1058 265 1 0.0 -21.0 1.8
1059 265 1 0.6 -20.4 1.8
1060 265 1 0.6 -21.0 1.2
1061 266 1 1.2 -20.4 1.2
1062 266 1 1.2 -21.0 1.8
1063 266 1 1.8 -20.4 1.8
1064 266 1 1.8 -21.0 1.2
1065 267 1 2.4 -20.4 1.2
1066 267 1 2.4 -21.0 1.8
1067 267 1 3.0 -20.4 1.8
1068 267 1 3.0 -21.0 1.2
1069 268 1 3.6 -20.4 1.2
1070 268 1 3.6 -21.0 1.8
1071 268 1 4.2 -20.4 1.8
1072 268 1 4.2 -21.0 1.2
1073 269 1 4.8 -20.4 1.2
1074 269 1 4.8 -21.0 1.8
1075 269 1 5.4 -20.4 1.8
1076 269 1 5.4 -21.0 1.2
1077 270 1 6.0 -20.4 1.2
1078 270 1 6.0 -21.0 1.8
1079 270 1 6.6 -20.4 1.8
1080 270 1 6.6 -21.0 1.2
1081 271 1 0.0 -21.6 1.2
1082 271 1 0.0 -22.2 1.8
1083 271 1 0.6 -21.6 1.8
1084 271 1 0.6 -22.2 1.2
1085 272 1 1.2 -21.6 1.2
1086 272 1 1.2 -22.2 1.8
1087 272 1 1.8 -21.6 1.8
1088 272 1 1.8 -22.2 1.2
1089 273 1 2.4 -21.6 1.2
1090 273 1 2.4 -22.2 1.8
1091 273 1 3.0 -21.6 1.8
1092 273 1 3.0 -22.2 1.2
1093 274 1 3.6 -21.6 1.2
1094 274 1 3.6 -22.2 1.8
1095 274 1 4.2 -21.6 1.8
1096 274 1 4.2 -22.2 1.2
1097 275 1 4.8 -21.6 1.2
1098 275 1 4.8 -22.2 1.8
1099 275 1 5.4 -21.6 1.8
1100 275 1 5.4 -22.2 1.2
1101 276 1 6.0 -21.6 1.2
1102 276 1 6.0 -22.2 1.8
1103 276 1 6.6 -21.6 1.8
1104 276 1 6.6 -22.2 1.2
1105 277 1 0.0 -22.8 1.2
1106 277 1 0.0 -23.4 1.8
1107 277 1 0.6 -22.8 1.8
1108 277 1 0.6 -23.4 1.2
1109 278 1 1.2 -22.8 1.2
1110 278 1 1.2 -23.4 1.8
1111 278 1 1.8 -22.8 1.8
1112 278 1 1.8 -23.4 1.2
1113 279 1 2.4 -22.8 1.2
1114 279 1 2.4 -23.4 1.8
1115 279 1 3.0 -22.8 1.8
1116 279 1 3.0 -23.4 1.2
1117 280 1 3.6 -22.8 1.2
1118 280 1 3.6 -23.4 1.8
1119 280 1 4.2 -22.8 1.8
1120 280 1 4.2 -23.4 1.2
1121 281 1 4.8 -22.8 1.2
1122 281 1 4.8 -23.4 1.8
1123 281 1 5.4 -22.8 1.8
1124 281 1 5.4 -23.4 1.2
1125 282 1 6.0 -22.8 1.2
1126 282 1 6.0 -23.4 1.8
1127 282 1 6.6 -22.8 1.8
1128 282 1 6.6 -23.4 1.2
1129 283 1 0.0 -24.0 1.2
1130 283 1 0.0 -24.6 1.8
1131 283 1 0.6 -24.0 1.8
1132 283 1 0.6 -24.6 1.2
1133 284 1 1.2 -24.0 1.2
1134 284 1 1.2 -24.6 1.8
1135 284 1 1.8 -24.0 1.8
1136 284 1 1.8 -24.6 1.2
1137 285 1 2.4 -24.0 1.2
1138 285 1 2.4 -24.6 1.8
1139 285 1 3.0 -24.0 1.8
1140 285 1 3.0 -24.6 1.2
1141 286 1 3.6 -24.0 1.2
1142 286 1 3.6 -24.6 1.8
1143 286 1 4.2 -24.0 1.8
1144 286 1 4.2 -24.6 1.2
1145 287 1 4.8 -24.0 1.2
1146 287 1 4.8 -24.6 1.8
1147 287 1 5.4 -24.0 1.8
1148 287 1 5.4 -24.6 1.2
1149 288 1 6.0 -24.0 1.2
1150 288 1 6.0 -24.6 1.8
1151 288 1 6.6 -24.0 1.8
1152 288 1 6.6 -24.6 1.2
1153 289 1 0.0 -25.2 1.2
1154 289 1 0.0 -25.8 1.8
1155 289 1 0.6 -25.2 1.8
1156 289 1 0.6 -25.8 1.2
1157 290 1 1.2 -25.2 1.2
1158 290 1 1.2 -25.8 1.8
1159 290 1 1.8 -25.2 1.8
1160 290 1 1.8 -25.8 1.2
1161 291 1 2.4 -25.2 1.2
1162 291 1 2.4 -25.8 1.8
1163 291 1 3.0 -25.2 1.8
1164 291 1 3.0 -25.8 1.2
1165 292 1 3.6 -25.2 1.2
1166 292 1 3.6 -25.8 1.8
1167 292 1 4.2 -25.2 1.8
1168 292 1 4.2 -25.8 1.2
1169 293 1 4.8 -25.2 1.2
1170 293 1 4.8 -25.8 1.8
1171 293 1 5.4 -25.2 1.8
1172 293 1 5.4 -25.8 1.2
1173 294 1 6.0 -25.2 1.2
1174 294 1 6.0 -25.8 1.8
1175 294 1 6.6 -25.2 1.8
1176 294 1 6.6 -25.8 1.2
1177 295 1 0.0 -26.4 1.2
1178 295 1 0.0 -27.0 1.8
1179 295 1 0.6 -26.4 1.8
1180 295 1 0.6 -27.0 1.2
1181 296 1 1.2 -26.4 1.2
1182 296 1 1.2 -27.0 1.8
1183 296 1 1.8 -26.4 1.8
1184 296 1 1.8 -27.0 1.2
1185 297 1 2.4 -26.4 1.2
1186 297 1 2.4 -27.0 1.8
1187 297 1 3.0 -26.4 1.8
1188 297 1 3.0 -27.0 1.2
1189 298 1 3.6 -26.4 1.2
1190 298 1 3.6 -27.0 1.8
1191 298 1 4.2 -26.4 1.8
1192 298 1 4.2 -27.0 1.2
1193 299 1 4.8 -26.4 1.2
1194 299 1 4.8 -27.0 1.8
1195 299 1 5.4 -26.4 1.8
1196 299 1 5.4 -27.0 1.2
1197 300 1 6.0 -26.4 1.2
1198 300 1 6.0 -27.0 1.8
1199 300 1 6.6 -26.4 1.8
1200 300 1 6.6 -27.0 1.2
1201 301 1 0.0 -27.6 1.2
1202 301 1 0.0 -28.2 1.8
1203 301 1 0.6 -27.6 1.8
1204 301 1 0.6 -28.2 1.2
1205 302 1 1.2 -27.6 1.2
1206 302 1 1.2 -28.2 1.8
1207 302 1 1.8 -27.6 1.8
1208 302 1 1.8 -28.2 1.2
1209 303 1 2.4 -27.6 1.2
1210 303 1 2.4 -28.2 1.8
1211 303 1 3.0 -27.6 1.8
1212 303 1 3.0 -28.2 1.2
1213 304 1 3.6 -27.6 1.2
1214 304 1 3.6 -28.2 1.8
1215 304 1 4.2 -27.6 1.8
1216 304 1 4.2 -28.2 1.2
1217 305 1 4.8 -27.6 1.2
1218 305 1 4.8 -28.2 1.8
1219 305 1 5.4 -27.6 1.8
1220 305 1 5.4 -28.2 1.2
1221 306 1 6.0 -27.6 1.2
1222 306 1 6.0 -28.2 1.8
1223 306 1 6.6 -27.6 1.8
1224 306 1 6.6 -28.2 1.2
1225 307 1 0.0 -28.8 1.2
1226 307 1 0.0 -29.4 1.8
1227 307 1 0.6 -28.8 1.8
1228 307 1 0.6 -29.4 1.2
1229 308 1 1.2 -28.8 1.2
1230 308 1 1.2 -29.4 1.8
1231 308 1 1.8 -28.8 1.8
1232 308 1 1.8 -29.4 1.2
1233 309 1 2.4 -28.8 1.2
1234 309 1 2.4 -29.4 1.8
1235 309 1 3.0 -28.8 1.8
1236 309 1 3.0 -29.4 1.2
1237 310 1 3.6 -28.8 1.2
1238 310 1 3.6 -29.4 1.8
1239 310 1 4.2 -28.8 1.8
1240 310 1 4.2 -29.4 1.2
1241 311 1 4.8 -28.8 1.2
1242 311 1 4.8 -29.4 1.8
1243 311 1 5.4 -28.8 1.8
1244 311 1 5.4 -29.4 1.2
1245 312 1 6.0 -28.8 1.2
1246 312 1 6.0 -29.4 1.8
1247 312 1 6.6 -28.8 1.8
1248 312 1 6.6 -29.4 1.2
1249 313 1 0.0 -30.0 1.2
1250 313 1 0.0 -30.6 1.8
1251 313 1 0.6 -30.0 1.8
1252 313 1 0.6 -30.6 1.2
1253 314 1 1.2 -30.0 1.2
1254 314 1 1.2 -30.6 1.8
1255 314 1 1.8 -30.0 1.8
1256 314 1 1.8 -30.6 1.2
1257 315 1 2.4 -30.0 1.2
1258 315 1 2.4 -30.6 1.8
1259 315 1 3.0 -30.0 1.8
1260 315 1 3.0 -30.6 1.2
1261 316 1 3.6 -30.0 1.2
1262 316 1 3.6 -30.6 1.8
1263 316 1 4.2 -30.0 1.8
1264 316 1 4.2 -30.6 1.2
1265 317 1 4.8 -30.0 1.2
1266 317 1 4.8 -30.6 1.8
1267 317 1 5.4 -30.0 1.8
1268 317 1 5.4 -30.6 1.2