LAMMPS Description

     4000  atoms
     0  bonds
     0  angles
     0  dihedrals
     0  impropers

     1  atom types

  0.0 40.50 xlo xhi
  0.0 40.50 ylo yhi
  0.0 40.50 zlo zhi

Masses

1 27.0  # Al

Atoms  # full

1 1 1 0.0 0.0 0.0 0.0
2 1 1 0.0 0.0 2.025 2.025
3 1 1 0.0 2.025 0.0 2.025
4 1 1 0.0 2.025 2.025 0.0
5 2 1 0.0 4.05 0.0 0.0
6 2 1 0.0 4.05 2.025 2.025
7 2 1 0.0 6.074999999999999 0.0 2.025
8 2 1 0.0 6.074999999999999 2.025 0.0
9 3 1 0.0 8.1 0.0 0.0
10 3 1 0.0 8.1 2.025 2.025
11 3 1 0.0 10.125 0.0 2.025
12 3 1 0.0 10.125 2.025 0.0
13 4 1 0.0 12.149999999999999 0.0 0.0
14 4 1 0.0 12.149999999999999 2.025 2.025
15 4 1 0.0 14.174999999999999 0.0 2.025
16 4 1 0.0 14.174999999999999 2.025 0.0
17 5 1 0.0 16.2 0.0 0.0
18 5 1 0.0 16.2 2.025 2.025
19 5 1 0.0 18.224999999999998 0.0 2.025
20 5 1 0.0 18.224999999999998 2.025 0.0
21 6 1 0.0 20.25 0.0 0.0
22 6 1 0.0 20.25 2.025 2.025
23 6 1 0.0 22.275 0.0 2.025
24 6 1 0.0 22.275 2.025 0.0
25 7 1 0.0 24.3 0.0 0.0
26 7 1 0.0 24.3 2.025 2.025
27 7 1 0.0 26.325 0.0 2.025
28 7 1 0.0 26.325 2.025 0.0
29 8 1 0.0 28.35 0.0 0.0
30 8 1 0.0 28.35 2.025 2.025
31 8 1 0.0 30.375 0.0 2.025
32 8 1 0.0 30.375 2.025 0.0
33 9 1 0.0 32.4 0.0 0.0
34 9 1 0.0 32.4 2.025 2.025
35 9 1 0.0 34.425 0.0 2.025
36 9 1 0.0 34.425 2.025 0.0
37 10 1 0.0 36.449999999999996 0.0 0.0
38 10 1 0.0 36.449999999999996 2.025 2.025
39 10 1 0.0 38.474999999999994 0.0 2.025
40 10 1 0.0 38.474999999999994 2.025 0.0
41 11 1 0.0 0.0 4.05 0.0
42 11 1 0.0 0.0 6.074999999999999 2.025
43 11 1 0.0 2.025 4.05 2.025
44 11 1 0.0 2.025 6.074999999999999 0.0
45 12 1 0.0 4.05 4.05 0.0
46 12 1 0.0 4.05 6.074999999999999 2.025
47 12 1 0.0 6.074999999999999 4.05 2.025
48 12 1 0.0 6.074999999999999 6.074999999999999 0.0
49 13 1 0.0 8.1 4.05 0.0
50 13 1 0.0 8.1 6.074999999999999 2.025
51 13 1 0.0 10.125 4.05 2.025
52 13 1 0.0 10.125 6.074999999999999 0.0
53 14 1 0.0 12.149999999999999 4.05 0.0
54 14 1 0.0 12.149999999999999 6.074999999999999 2.025
55 14 1 0.0 14.174999999999999 4.05 2.025
56 14 1 0.0 14.174999999999999 6.074999999999999 0.0
57 15 1 0.0 16.2 4.05 0.0
58 15 1 0.0 16.2 6.074999999999999 2.025
59 15 1 0.0 18.224999999999998 4.05 2.025
60 15 1 0.0 18.224999999999998 6.074999999999999 0.0
61 16 1 0.0 20.25 4.05 0.0
62 16 1 0.0 20.25 6.074999999999999 2.025
63 16 1 0.0 22.275 4.05 2.025
64 16 1 0.0 22.275 6.074999999999999 0.0
65 17 1 0.0 24.3 4.05 0.0
66 17 1 0.0 24.3 6.074999999999999 2.025
67 17 1 0.0 26.325 4.05 2.025
68 17 1 0.0 26.325 6.074999999999999 0.0
69 18 1 0.0 28.35 4.05 0.0
70 18 1 0.0 28.35 6.074999999999999 2.025
71 18 1 0.0 30.375 4.05 2.025
72 18 1 0.0 30.375 6.074999999999999 0.0
73 19 1 0.0 32.4 4.05 0.0
74 19 1 0.0 32.4 6.074999999999999 2.025
75 19 1 0.0 34.425 4.05 2.025
76 19 1 0.0 34.425 6.074999999999999 0.0
77 20 1 0.0 36.449999999999996 4.05 0.0
78 20 1 0.0 36.449999999999996 6.074999999999999 2.025
79 20 1 0.0 38.474999999999994 4.05 2.025
80 20 1 0.0 38.474999999999994 6.074999999999999 0.0
81 21 1 0.0 0.0 8.1 0.0
82 21 1 0.0 0.0 10.125 2.025
83 21 1 0.0 2.025 8.1 2.025
84 21 1 0.0 2.025 10.125 0.0
85 22 1 0.0 4.05 8.1 0.0
86 22 1 0.0 4.05 10.125 2.025
87 22 1 0.0 6.074999999999999 8.1 2.025
88 22 1 0.0 6.074999999999999 10.125 0.0
89 23 1 0.0 8.1 8.1 0.0
90 23 1 0.0 8.1 10.125 2.025
91 23 1 0.0 10.125 8.1 2.025
92 23 1 0.0 10.125 10.125 0.0
93 24 1 0.0 12.149999999999999 8.1 0.0
94 24 1 0.0 12.149999999999999 10.125 2.025
95 24 1 0.0 14.174999999999999 8.1 2.025
96 24 1 0.0 14.174999999999999 10.125 0.0
97 25 1 0.0 16.2 8.1 0.0
98 25 1 0.0 16.2 10.125 2.025
99 25 1 0.0 18.224999999999998 8.1 2.025
100 25 1 0.0 18.224999999999998 10.125 0.0
101 26 1 0.0 20.25 8.1 0.0
102 26 1 0.0 20.25 10.125 2.025
103 26 1 0.0 22.275 8.1 2.025
104 26 1 0.0 22.275 10.125 0.0
105 27 1 0.0 24.3 8.1 0.0
106 27 1 0.0 24.3 10.125 2.025
107 27 1 0.0 26.325 8.1 2.025
108 27 1 0.0 26.325 10.125 0.0
109 28 1 0.0 28.35 8.1 0.0
110 28 1 0.0 28.35 10.125 2.025
111 28 1 0.0 30.375 8.1 2.025
112 28 1 0.0 30.375 10.125 0.0
113 29 1 0.0 32.4 8.1 0.0
114 29 1 0.0 32.4 10.125 2.025
115 29 1 0.0 34.425 8.1 2.025
116 29 1 0.0 34.425 10.125 0.0
117 30 1 0.0 36.449999999999996 8.1 0.0
118 30 1 0.0 36.449999999999996 10.125 2.025
119 30 1 0.0 38.474999999999994 8.1 2.025
120 30 1 0.0 38.474999999999994 10.125 0.0
121 31 1 0.0 0.0 12.149999999999999 0.0
122 31 1 0.0 0.0 14.174999999999999 2.025
123 31 1 0.0 2.025 12.149999999999999 2.025
124 31 1 0.0 2.025 14.174999999999999 0.0
125 32 1 0.0 4.05 12.149999999999999 0.0
126 32 1 0.0 4.05 14.174999999999999 2.025
127 32 1 0.0 6.074999999999999 12.149999999999999 2.025
128 32 1 0.0 6.074999999999999 14.174999999999999 0.0
129 33 1 0.0 8.1 12.149999999999999 0.0
130 33 1 0.0 8.1 14.174999999999999 2.025
131 33 1 0.0 10.125 12.149999999999999 2.025
132 33 1 0.0 10.125 14.174999999999999 0.0
133 34 1 0.0 12.149999999999999 12.149999999999999 0.0
134 34 1 0.0 12.149999999999999 14.174999999999999 2.025
135 34 1 0.0 14.174999999999999 12.149999999999999 2.025
136 34 1 0.0 14.174999999999999 14.174999999999999 0.0
137 35 1 0.0 16.2 12.149999999999999 0.0
138 35 1 0.0 16.2 14.174999999999999 2.025
139 35 1 0.0 18.224999999999998 12.149999999999999 2.025
140 35 1 0.0 18.224999999999998 14.174999999999999 0.0
141 36 1 0.0 20.25 12.149999999999999 0.0
142 36 1 0.0 20.25 14.174999999999999 2.025
143 36 1 0.0 22.275 12.149999999999999 2.025
144 36 1 0.0 22.275 14.174999999999999 0.0
145 37 1 0.0 24.3 12.149999999999999 0.0
146 37 1 0.0 24.3 14.174999999999999 2.025
147 37 1 0.0 26.325 12.149999999999999 2.025
148 37 1 0.0 26.325 14.174999999999999 0.0
149 38 1 0.0 28.35 12.149999999999999 0.0
150 38 1 0.0 28.35 14.174999999999999 2.025
151 38 1 0.0 30.375 12.149999999999999 2.025
152 38 1 0.0 30.375 14.174999999999999 0.0
153 39 1 0.0 32.4 12.149999999999999 0.0
154 39 1 0.0 32.4 14.174999999999999 2.025
155 39 1 0.0 34.425 12.149999999999999 2.025
156 39 1 0.0 34.425 14.174999999999999 0.0
157 40 1 0.0 36.449999999999996 12.149999999999999 0.0
158 40 1 0.0 36.449999999999996 14.174999999999999 2.025
159 40 1 0.0 38.474999999999994 12.149999999999999 2.025
160 40 1 0.0 38.474999999999994 14.174999999999999 0.0
161 41 1 0.0 0.0 16.2 0.0
162 41 1 0.0 0.0 18.224999999999998 2.025
163 41 1 0.0 2.025 16.2 2.025
164 41 1 0.0 2.025 18.224999999999998 0.0
165 42 1 0.0 4.05 16.2 0.0
166 42 1 0.0 4.05 18.224999999999998 2.025
167 42 1 0.0 6.074999999999999 16.2 2.025
168 42 1 0.0 6.074999999999999 18.224999999999998 0.0
169 43 1 0.0 8.1 16.2 0.0
170 43 1 0.0 8.1 18.224999999999998 2.025
171 43 1 0.0 10.125 16.2 2.025
172 43 1 0.0 10.125 18.224999999999998 0.0
173 44 1 0.0 12.149999999999999 16.2 0.0
174 44 1 0.0 12.149999999999999 18.224999999999998 2.025
175 44 1 0.0 14.174999999999999 16.2 2.025
176 44 1 0.0 14.174999999999999 18.224999999999998 0.0
177 45 1 0.0 16.2 16.2 0.0
178 45 1 0.0 16.2 18.224999999999998 2.025
179 45 1 0.0 18.224999999999998 16.2 2.025
180 45 1 0.0 18.224999999999998 18.224999999999998 0.0
181 46 1 0.0 20.25 16.2 0.0
182 46 1 0.0 20.25 18.224999999999998 2.025
183 46 1 0.0 22.275 16.2 2.025
184 46 1 0.0 22.275 18.224999999999998 0.0
185 47 1 0.0 24.3 16.2 0.0
186 47 1 0.0 24.3 18.224999999999998 2.025
187 47 1 0.0 26.325 16.2 2.025
188 47 1 0.0 26.325 18.224999999999998 0.0
189 48 1 0.0 28.35 16.2 0.0
190 48 1 0.0 28.35 18.224999999999998 2.025
191 48 1 0.0 30.375 16.2 2.025
192 48 1 0.0 30.375 18.224999999999998 0.0
193 49 1 0.0 32.4 16.2 0.0
194 49 1 0.0 32.4 18.224999999999998 2.025
195 49 1 0.0 34.425 16.2 2.025
196 49 1 0.0 34.425 18.224999999999998 0.0
197 50 1 0.0 36.449999999999996 16.2 0.0
198 50 1 0.0 36.449999999999996 18.224999999999998 2.025
199 50 1 0.0 38.474999999999994 16.2 2.025
200 50 1 0.0 38.474999999999994 18.224999999999998 0.0
201 51 1 0.0 0.0 20.25 0.0
202 51 1 0.0 0.0 22.275 2.025
203 51 1 0.0 2.025 20.25 2.025
204 51 1 0.0 2.025 22.275 0.0
205 52 1 0.0 4.05 20.25 0.0
206 52 1 0.0 4.05 22.275 2.025
207 52 1 0.0 6.074999999999999 20.25 2.025
208 52 1 0.0 6.074999999999999 22.275 0.0
209 53 1 0.0 8.1 20.25 0.0
210 53 1 0.0 8.1 22.275 2.025
211 53 1 0.0 10.125 20.25 2.025
212 53 1 0.0 10.125 22.275 0.0
213 54 1 0.0 12.149999999999999 20.25 0.0
214 54 1 0.0 12.149999999999999 22.275 2.025
215 54 1 0.0 14.174999999999999 20.25 2.025
216 54 1 0.0 14.174999999999999 22.275 0.0
217 55 1 0.0 16.2 20.25 0.0
218 55 1 0.0 16.2 22.275 2.025
219 55 1 0.0 18.224999999999998 20.25 2.025
220 55 1 0.0 18.224999999999998 22.275 0.0
221 56 1 0.0 20.25 20.25 0.0
222 56 1 0.0 20.25 22.275 2.025
223 56 1 0.0 22.275 20.25 2.025
224 56 1 0.0 22.275 22.275 0.0
225 57 1 0.0 24.3 20.25 0.0
226 57 1 0.0 24.3 22.275 2.025
227 57 1 0.0 26.325 20.25 2.025
228 57 1 0.0 26.325 22.275 0.0
229 58 1 0.0 28.35 20.25 0.0
230 58 1 0.0 28.35 22.275 2.025
231 58 1 0.0 30.375 20.25 2.025
232 58 1 0.0 30.375 22.275 0.0
233 59 1 0.0 32.4 20.25 0.0
234 59 1 0.0 32.4 22.275 2.025
235 59 1 0.0 34.425 20.25 2.025
236 59 1 0.0 34.425 22.275 0.0
237 60 1 0.0 36.449999999999996 20.25 0.0
238 60 1 0.0 36.449999999999996 22.275 2.025
239 60 1 0.0 38.474999999999994 20.25 2.025
240 60 1 0.0 38.474999999999994 22.275 0.0
241 61 1 0.0 0.0 24.3 0.0
242 61 1 0.0 0.0 26.325 2.025
243 61 1 0.0 2.025 24.3 2.025
244 61 1 0.0 2.025 26.325 0.0
245 62 1 0.0 4.05 24.3 0.0
246 62 1 0.0 4.05 26.325 2.025
247 62 1 0.0 6.074999999999999 24.3 2.025
248 62 1 0.0 6.074999999999999 26.325 0.0
249 63 1 0.0 8.1 24.3 0.0
250 63 1 0.0 8.1 26.325 2.025
251 63 1 0.0 10.125 24.3 2.025
252 63 1 0.0 10.125 26.325 0.0
253 64 1 0.0 12.149999999999999 24.3 0.0
254 64 1 0.0 12.149999999999999 26.325 2.025
255 64 1 0.0 14.174999999999999 24.3 2.025
256 64 1 0.0 14.174999999999999 26.325 0.0
257 65 1 0.0 16.2 24.3 0.0
258 65 1 0.0 16.2 26.325 2.025
259 65 1 0.0 18.224999999999998 24.3 2.025
260 65 1 0.0 18.224999999999998 26.325 0.0
261 66 1 0.0 20.25 24.3 0.0
262 66 1 0.0 20.25 26.325 2.025
263 66 1 0.0 22.275 24.3 2.025
264 66 1 0.0 22.275 26.325 0.0
265 67 1 0.0 24.3 24.3 0.0
266 67 1 0.0 24.3 26.325 2.025
267 67 1 0.0 26.325 24.3 2.025
268 67 1 0.0 26.325 26.325 0.0
269 68 1 0.0 28.35 24.3 0.0
270 68 1 0.0 28.35 26.325 2.025
271 68 1 0.0 30.375 24.3 2.025
272 68 1 0.0 30.375 26.325 0.0
273 69 1 0.0 32.4 24.3 0.0
274 69 1 0.0 32.4 26.325 2.025
275 69 1 0.0 34.425 24.3 2.025
276 69 1 0.0 34.425 26.325 0.0
277 70 1 0.0 36.449999999999996 24.3 0.0
278 70 1 0.0 36.449999999999996 26.325 2.025
279 70 1 0.0 38.474999999999994 24.3 2.025
280 70 1 0.0 38.474999999999994 26.325 0.0
281 71 1 0.0 0.0 28.35 0.0
282 71 1 0.0 0.0 30.375 2.025
283 71 1 0.0 2.025 28.35 2.025
284 71 1 0.0 2.025 30.375 0.0
285 72 1 0.0 4.05 28.35 0.0
286 72 1 0.0 4.05 30.375 2.025
287 72 1 0.0 6.074999999999999 28.35 2.025
288 72 1 0.0 6.074999999999999 30.375 0.0
289 73 1 0.0 8.1 28.35 0.0
290 73 1 0.0 8.1 30.375 2.025
291 73 1 0.0 10.125 28.35 2.025
292 73 1 0.0 10.125 30.375 0.0
293 74 1 0.0 12.149999999999999 28.35 0.0
294 74 1 0.0 12.149999999999999 30.375 2.025
295 74 1 0.0 14.174999999999999 28.35 2.025
296 74 1 0.0 14.174999999999999 30.375 0.0
297 75 1 0.0 16.2 28.35 0.0
298 75 1 0.0 16.2 30.375 2.025
299 75 1 0.0 18.224999999999998 28.35 2.025
300 75 1 0.0 18.224999999999998 30.375 0.0
301 76 1 0.0 20.25 28.35 0.0
302 76 1 0.0 20.25 30.375 2.025
303 76 1 0.0 22.275 28.35 2.025
304 76 1 0.0 22.275 30.375 0.0
305 77 1 0.0 24.3 28.35 0.0
306 77 1 0.0 24.3 30.375 2.025
307 77 1 0.0 26.325 28.35 2.025
308 77 1 0.0 26.325 30.375 0.0
309 78 1 0.0 28.35 28.35 0.0
310 78 1 0.0 28.35 30.375 2.025
311 78 1 0.0 30.375 28.35 2.025
312 78 1 0.0 30.375 30.375 0.0
313 79 1 0.0 32.4 28.35 0.0
314 79 1 0.0 32.4 30.375 2.025
315 79 1 0.0 34.425 28.35 2.025
316 79 1 0.0 34.425 30.375 0.0
317 80 1 0.0 36.449999999999996 28.35 0.0
318 80 1 0.0 36.449999999999996 30.375 2.025
319 80 1 0.0 38.474999999999994 28.35 2.025
320 80 1 0.0 38.474999999999994 30.375 0.0
321 81 1 0.0 0.0 32.4 0.0
322 81 1 0.0 0.0 34.425 2.025
323 81 1 0.0 2.025 32.4 2.025
324 81 1 0.0 2.025 34.425 0.0
325 82 1 0.0 4.05 32.4 0.0
326 82 1 0.0 4.05 34.425 2.025
327 82 1 0.0 6.074999999999999 32.4 2.025
328 82 1 0.0 6.074999999999999 34.425 0.0
329 83 1 0.0 8.1 32.4 0.0
330 83 1 0.0 8.1 34.425 2.025
331 83 1 0.0 10.125 32.4 2.025
332 83 1 0.0 10.125 34.425 0.0
333 84 1 0.0 12.149999999999999 32.4 0.0
334 84 1 0.0 12.149999999999999 34.425 2.025
335 84 1 0.0 14.174999999999999 32.4 2.025
336 84 1 0.0 14.174999999999999 34.425 0.0
337 85 1 0.0 16.2 32.4 0.0
338 85 1 0.0 16.2 34.425 2.025
339 85 1 0.0 18.224999999999998 32.4 2.025
340 85 1 0.0 18.224999999999998 34.425 0.0
341 86 1 0.0 20.25 32.4 0.0
342 86 1 0.0 20.25 34.425 2.025
343 86 1 0.0 22.275 32.4 2.025
344 86 1 0.0 22.275 34.425 0.0
345 87 1 0.0 24.3 32.4 0.0
346 87 1 0.0 24.3 34.425 2.025
347 87 1 0.0 26.325 32.4 2.025
348 87 1 0.0 26.325 34.425 0.0
349 88 1 0.0 28.35 32.4 0.0
350 88 1 0.0 28.35 34.425 2.025
351 88 1 0.0 30.375 32.4 2.025
352 88 1 0.0 30.375 34.425 0.0
353 89 1 0.0 32.4 32.4 0.0
354 89 1 0.0 32.4 34.425 2.025
355 89 1 0.0 34.425 32.4 2.025
356 89 1 0.0 34.425 34.425 0.0
357 90 1 0.0 36.449999999999996 32.4 0.0
358 90 1 0.0 36.449999999999996 34.425 2.025
359 90 1 0.0 38.474999999999994 32.4 2.025
360 90 1 0.0 38.474999999999994 34.425 0.0
361 91 1 0.0 0.0 36.449999999999996 0.0
362 91 1 0.0 0.0 38.474999999999994 2.025
363 91 1 0.0 2.025 36.449999999999996 2.025
364 91 1 0.0 2.025 38.474999999999994 0.0
365 92 1 0.0 4.05 36.449999999999996 0.0
366 92 1 0.0 4.05 38.474999999999994 2.025
367 92 1 0.0 6.074999999999999 36.449999999999996 2.025
368 92 1 0.0 6.074999999999999 38.474999999999994 0.0
369 93 1 0.0 8.1 36.449999999999996 0.0
370 93 1 0.0 8.1 38.474999999999994 2.025
371 93 1 0.0 10.125 36.449999999999996 2.025
372 93 1 0.0 10.125 38.474999999999994 0.0
373 94 1 0.0 12.149999999999999 36.449999999999996 0.0
374 94 1 0.0 12.149999999999999 38.474999999999994 2.025
375 94 1 0.0 14.174999999999999 36.449999999999996 2.025
376 94 1 0.0 14.174999999999999 38.474999999999994 0.0
377 95 1 0.0 16.2 36.449999999999996 0.0
378 95 1 0.0 16.2 38.474999999999994 2.025
379 95 1 0.0 18.224999999999998 36.449999999999996 2.025
380 95 1 0.0 18.224999999999998 38.474999999999994 0.0
381 96 1 0.0 20.25 36.449999999999996 0.0
382 96 1 0.0 20.25 38.474999999999994 2.025
383 96 1 0.0 22.275 36.449999999999996 2.025
384 96 1 0.0 22.275 38.474999999999994 0.0
385 97 1 0.0 24.3 36.449999999999996 0.0
386 97 1 0.0 24.3 38.474999999999994 2.025
387 97 1 0.0 26.325 36.449999999999996 2.025
388 97 1 0.0 26.325 38.474999999999994 0.0
389 98 1 0.0 28.35 36.449999999999996 0.0
390 98 1 0.0 28.35 38.474999999999994 2.025
391 98 1 0.0 30.375 36.449999999999996 2.025
392 98 1 0.0 30.375 38.474999999999994 0.0
393 99 1 0.0 32.4 36.449999999999996 0.0
394 99 1 0.0 32.4 38.474999999999994 2.025
395 99 1 0.0 34.425 36.449999999999996 2.025
396 99 1 0.0 34.425 38.474999999999994 0.0
397 100 1 0.0 36.449999999999996 36.449999999999996 0.0
398 100 1 0.0 36.449999999999996 38.474999999999994 2.025
399 100 1 0.0 38.474999999999994 36.449999999999996 2.025
400 100 1 0.0 38.474999999999994 38.474999999999994 0.0
401 101 1 0.0 0.0 0.0 4.05
402 101 1 0.0 0.0 2.025 6.074999999999999
403 101 1 0.0 2.025 0.0 6.074999999999999
404 101 1 0.0 2.025 2.025 4.05
405 102 1 0.0 4.05 0.0 4.05
406 102 1 0.0 4.05 2.025 6.074999999999999
407 102 1 0.0 6.074999999999999 0.0 6.074999999999999
408 102 1 0.0 6.074999999999999 2.025 4.05
409 103 1 0.0 8.1 0.0 4.05
410 103 1 0.0 8.1 2.025 6.074999999999999
411 103 1 0.0 10.125 0.0 6.074999999999999
412 103 1 0.0 10.125 2.025 4.05
413 104 1 0.0 12.149999999999999 0.0 4.05
414 104 1 0.0 12.149999999999999 2.025 6.074999999999999
415 104 1 0.0 14.174999999999999 0.0 6.074999999999999
416 104 1 0.0 14.174999999999999 2.025 4.05
417 105 1 0.0 16.2 0.0 4.05
418 105 1 0.0 16.2 2.025 6.074999999999999
419 105 1 0.0 18.224999999999998 0.0 6.074999999999999
420 105 1 0.0 18.224999999999998 2.025 4.05
421 106 1 0.0 20.25 0.0 4.05
422 106 1 0.0 20.25 2.025 6.074999999999999
423 106 1 0.0 22.275 0.0 6.074999999999999
424 106 1 0.0 22.275 2.025 4.05
425 107 1 0.0 24.3 0.0 4.05
426 107 1 0.0 24.3 2.025 6.074999999999999
427 107 1 0.0 26.325 0.0 6.074999999999999
428 107 1 0.0 26.325 2.025 4.05
429 108 1 0.0 28.35 0.0 4.05
430 108 1 0.0 28.35 2.025 6.074999999999999
431 108 1 0.0 30.375 0.0 6.074999999999999
432 108 1 0.0 30.375 2.025 4.05
433 109 1 0.0 32.4 0.0 4.05
434 109 1 0.0 32.4 2.025 6.074999999999999
435 109 1 0.0 34.425 0.0 6.074999999999999
436 109 1 0.0 34.425 2.025 4.05
437 110 1 0.0 36.449999999999996 0.0 4.05
438 110 1 0.0 36.449999999999996 2.025 6.074999999999999
439 110 1 0.0 38.474999999999994 0.0 6.074999999999999
440 110 1 0.0 38.474999999999994 2.025 4.05
441 111 1 0.0 0.0 4.05 4.05
442 111 1 0.0 0.0 6.074999999999999 6.074999999999999
443 111 1 0.0 2.025 4.05 6.074999999999999
444 111 1 0.0 2.025 6.074999999999999 4.05
445 112 1 0.0 4.05 4.05 4.05
446 112 1 0.0 4.05 6.074999999999999 6.074999999999999
447 112 1 0.0 6.074999999999999 4.05 6.074999999999999
448 112 1 0.0 6.074999999999999 6.074999999999999 4.05
449 113 1 0.0 8.1 4.05 4.05
450 113 1 0.0 8.1 6.074999999999999 6.074999999999999
451 113 1 0.0 10.125 4.05 6.074999999999999
452 113 1 0.0 10.125 6.074999999999999 4.05
453 114 1 0.0 12.149999999999999 4.05 4.05
454 114 1 0.0 12.149999999999999 6.074999999999999 6.074999999999999
455 114 1 0.0 14.174999999999999 4.05 6.074999999999999
456 114 1 0.0 14.174999999999999 6.074999999999999 4.05
457 115 1 0.0 16.2 4.05 4.05
458 115 1 0.0 16.2 6.074999999999999 6.074999999999999
459 115 1 0.0 18.224999999999998 4.05 6.074999999999999
460 115 1 0.0 18.224999999999998 6.074999999999999 4.05
461 116 1 0.0 20.25 4.05 4.05
462 116 1 0.0 20.25 6.074999999999999 6.074999999999999
463 116 1 0.0 22.275 4.05 6.074999999999999
464 116 1 0.0 22.275 6.074999999999999 4.05
465 117 1 0.0 24.3 4.05 4.05
466 117 1 0.0 24.3 6.074999999999999 6.074999999999999
467 117 1 0.0 26.325 4.05 6.074999999999999
468 117 1 0.0 26.325 6.074999999999999 4.05
469 118 1 0.0 28.35 4.05 4.05
470 118 1 0.0 28.35 6.074999999999999 6.074999999999999
471 118 1 0.0 30.375 4.05 6.074999999999999
472 118 1 0.0 30.375 6.074999999999999 4.05
473 119 1 0.0 32.4 4.05 4.05
474 119 1 0.0 32.4 6.074999999999999 6.074999999999999
475 119 1 0.0 34.425 4.05 6.074999999999999
476 119 1 0.0 34.425 6.074999999999999 4.05
477 120 1 0.0 36.449999999999996 4.05 4.05
478 120 1 0.0 36.449999999999996 6.074999999999999 6.074999999999999
479 120 1 0.0 38.474999999999994 4.05 6.074999999999999
480 120 1 0.0 38.474999999999994 6.074999999999999 4.05
481 121 1 0.0 0.0 8.1 4.05
482 121 1 0.0 0.0 10.125 6.074999999999999
483 121 1 0.0 2.025 8.1 6.074999999999999
484 121 1 0.0 2.025 10.125 4.05
485 122 1 0.0 4.05 8.1 4.05
486 122 1 0.0 4.05 10.125 6.074999999999999
487 122 1 0.0 6.074999999999999 8.1 6.074999999999999
488 122 1 0.0 6.074999999999999 10.125 4.05
489 123 1 0.0 8.1 8.1 4.05
490 123 1 0.0 8.1 10.125 6.074999999999999
491 123 1 0.0 10.125 8.1 6.074999999999999
492 123 1 0.0 10.125 10.125 4.05
493 124 1 0.0 12.149999999999999 8.1 4.05
494 124 1 0.0 12.149999999999999 10.125 6.074999999999999
495 124 1 0.0 14.174999999999999 8.1 6.074999999999999
496 124 1 0.0 14.174999999999999 10.125 4.05
497 125 1 0.0 16.2 8.1 4.05
498 125 1 0.0 16.2 10.125 6.074999999999999
499 125 1 0.0 18.224999999999998 8.1 6.074999999999999
500 125 1 0.0 18.224999999999998 10.125 4.05
501 126 1 0.0 20.25 8.1 4.05
502 126 1 0.0 20.25 10.125 6.074999999999999
503 126 1 0.0 22.275 8.1 6.074999999999999
504 126 1 0.0 22.275 10.125 4.05
505 127 1 0.0 24.3 8.1 4.05
506 127 1 0.0 24.3 10.125 6.074999999999999
507 127 1 0.0 26.325 8.1 6.074999999999999
508 127 1 0.0 26.325 10.125 4.05
509 128 1 0.0 28.35 8.1 4.05
510 128 1 0.0 28.35 10.125 6.074999999999999
511 128 1 0.0 30.375 8.1 6.074999999999999
512 128 1 0.0 30.375 10.125 4.05
513 129 1 0.0 32.4 8.1 4.05
514 129 1 0.0 32.4 10.125 6.074999999999999
515 129 1 0.0 34.425 8.1 6.074999999999999
516 129 1 0.0 34.425 10.125 4.05
517 130 1 0.0 36.449999999999996 8.1 4.05
518 130 1 0.0 36.449999999999996 10.125 6.074999999999999
519 130 1 0.0 38.474999999999994 8.1 6.074999999999999
520 130 1 0.0 38.474999999999994 10.125 4.05
521 131 1 0.0 0.0 12.149999999999999 4.05
522 131 1 0.0 0.0 14.174999999999999 6.074999999999999
523 131 1 0.0 2.025 12.149999999999999 6.074999999999999
524 131 1 0.0 2.025 14.174999999999999 4.05
525 132 1 0.0 4.05 12.149999999999999 4.05
526 132 1 0.0 4.05 14.174999999999999 6.074999999999999
527 132 1 0.0 6.074999999999999 12.149999999999999 6.074999999999999
528 132 1 0.0 6.074999999999999 14.174999999999999 4.05
529 133 1 0.0 8.1 12.149999999999999 4.05
530 133 1 0.0 8.1 14.174999999999999 6.074999999999999
531 133 1 0.0 10.125 12.149999999999999 6.074999999999999
532 133 1 0.0 10.125 14.174999999999999 4.05
533 134 1 0.0 12.149999999999999 12.149999999999999 4.05
534 134 1 0.0 12.149999999999999 14.174999999999999 6.074999999999999
535 134 1 0.0 14.174999999999999 12.149999999999999 6.074999999999999
536 134 1 0.0 14.174999999999999 14.174999999999999 4.05
537 135 1 0.0 16.2 12.149999999999999 4.05
538 135 1 0.0 16.2 14.174999999999999 6.074999999999999
539 135 1 0.0 18.224999999999998 12.149999999999999 6.074999999999999
540 135 1 0.0 18.224999999999998 14.174999999999999 4.05
541 136 1 0.0 20.25 12.149999999999999 4.05
542 136 1 0.0 20.25 14.174999999999999 6.074999999999999
543 136 1 0.0 22.275 12.149999999999999 6.074999999999999
544 136 1 0.0 22.275 14.174999999999999 4.05
545 137 1 0.0 24.3 12.149999999999999 4.05
546 137 1 0.0 24.3 14.174999999999999 6.074999999999999
547 137 1 0.0 26.325 12.149999999999999 6.074999999999999
548 137 1 0.0 26.325 14.174999999999999 4.05
549 138 1 0.0 28.35 12.149999999999999 4.05
550 138 1 0.0 28.35 14.174999999999999 6.074999999999999
551 138 1 0.0 30.375 12.149999999999999 6.074999999999999
552 138 1 0.0 30.375 14.174999999999999 4.05
553 139 1 0.0 32.4 12.149999999999999 4.05
554 139 1 0.0 32.4 14.174999999999999 6.074999999999999
555 139 1 0.0 34.425 12.149999999999999 6.074999999999999
556 139 1 0.0 34.425 14.174999999999999 4.05
557 140 1 0.0 36.449999999999996 12.149999999999999 4.05
558 140 1 0.0 36.449999999999996 14.174999999999999 6.074999999999999
559 140 1 0.0 38.474999999999994 12.149999999999999 6.074999999999999
560 140 1 0.0 38.474999999999994 14.174999999999999 4.05
561 141 1 0.0 0.0 16.2 4.05
562 141 1 0.0 0.0 18.224999999999998 6.074999999999999
563 141 1 0.0 2.025 16.2 6.074999999999999
564 141 1 0.0 2.025 18.224999999999998 4.05
565 142 1 0.0 4.05 16.2 4.05
566 142 1 0.0 4.05 18.224999999999998 6.074999999999999
567 142 1 0.0 6.074999999999999 16.2 6.074999999999999
568 142 1 0.0 6.074999999999999 18.224999999999998 4.05
569 143 1 0.0 8.1 16.2 4.05
570 143 1 0.0 8.1 18.224999999999998 6.074999999999999
571 143 1 0.0 10.125 16.2 6.074999999999999
572 143 1 0.0 10.125 18.224999999999998 4.05
573 144 1 0.0 12.149999999999999 16.2 4.05
574 144 1 0.0 12.149999999999999 18.224999999999998 6.074999999999999
575 144 1 0.0 14.174999999999999 16.2 6.074999999999999
576 144 1 0.0 14.174999999999999 18.224999999999998 4.05
577 145 1 0.0 16.2 16.2 4.05
578 145 1 0.0 16.2 18.224999999999998 6.074999999999999
579 145 1 0.0 18.224999999999998 16.2 6.074999999999999
580 145 1 0.0 18.224999999999998 18.224999999999998 4.05
581 146 1 0.0 20.25 16.2 4.05
582 146 1 0.0 20.25 18.224999999999998 6.074999999999999
583 146 1 0.0 22.275 16.2 6.074999999999999
584 146 1 0.0 22.275 18.224999999999998 4.05
585 147 1 0.0 24.3 16.2 4.05
586 147 1 0.0 24.3 18.224999999999998 6.074999999999999
587 147 1 0.0 26.325 16.2 6.074999999999999
588 147 1 0.0 26.325 18.224999999999998 4.05
589 148 1 0.0 28.35 16.2 4.05
590 148 1 0.0 28.35 18.224999999999998 6.074999999999999
591 148 1 0.0 30.375 16.2 6.074999999999999
592 148 1 0.0 30.375 18.224999999999998 4.05
593 149 1 0.0 32.4 16.2 4.05
594 149 1 0.0 32.4 18.224999999999998 6.074999999999999
595 149 1 0.0 34.425 16.2 6.074999999999999
596 149 1 0.0 34.425 18.224999999999998 4.05
597 150 1 0.0 36.449999999999996 16.2 4.05
598 150 1 0.0 36.449999999999996 18.224999999999998 6.074999999999999
599 150 1 0.0 38.474999999999994 16.2 6.074999999999999
600 150 1 0.0 38.474999999999994 18.224999999999998 4.05
601 151 1 0.0 0.0 20.25 4.05
602 151 1 0.0 0.0 22.275 6.074999999999999
603 151 1 0.0 2.025 20.25 6.074999999999999
604 151 1 0.0 2.025 22.275 4.05
605 152 1 0.0 4.05 20.25 4.05
606 152 1 0.0 4.05 22.275 6.074999999999999
607 152 1 0.0 6.074999999999999 20.25 6.074999999999999
608 152 1 0.0 6.074999999999999 22.275 4.05
609 153 1 0.0 8.1 20.25 4.05
610 153 1 0.0 8.1 22.275 6.074999999999999
611 153 1 0.0 10.125 20.25 6.074999999999999
612 153 1 0.0 10.125 22.275 4.05
613 154 1 0.0 12.149999999999999 20.25 4.05
614 154 1 0.0 12.149999999999999 22.275 6.074999999999999
615 154 1 0.0 14.174999999999999 20.25 6.074999999999999
616 154 1 0.0 14.174999999999999 22.275 4.05
617 155 1 0.0 16.2 20.25 4.05
618 155 1 0.0 16.2 22.275 6.074999999999999
619 155 1 0.0 18.224999999999998 20.25 6.074999999999999
620 155 1 0.0 18.224999999999998 22.275 4.05
621 156 1 0.0 20.25 20.25 4.05
622 156 1 0.0 20.25 22.275 6.074999999999999
623 156 1 0.0 22.275 20.25 6.074999999999999
624 156 1 0.0 22.275 22.275 4.05
625 157 1 0.0 24.3 20.25 4.05
626 157 1 0.0 24.3 22.275 6.074999999999999
627 157 1 0.0 26.325 20.25 6.074999999999999
628 157 1 0.0 26.325 22.275 4.05
629 158 1 0.0 28.35 20.25 4.05
630 158 1 0.0 28.35 22.275 6.074999999999999
631 158 1 0.0 30.375 20.25 6.074999999999999
632 158 1 0.0 30.375 22.275 4.05
633 159 1 0.0 32.4 20.25 4.05
634 159 1 0.0 32.4 22.275 6.074999999999999
635 159 1 0.0 34.425 20.25 6.074999999999999
636 159 1 0.0 34.425 22.275 4.05
637 160 1 0.0 36.449999999999996 20.25 4.05
638 160 1 0.0 36.449999999999996 22.275 6.074999999999999
639 160 1 0.0 38.474999999999994 20.25 6.074999999999999
640 160 1 0.0 38.474999999999994 22.275 4.05
641 161 1 0.0 0.0 24.3 4.05
642 161 1 0.0 0.0 26.325 6.074999999999999
643 161 1 0.0 2.025 24.3 6.074999999999999
644 161 1 0.0 2.025 26.325 4.05
645 162 1 0.0 4.05 24.3 4.05
646 162 1 0.0 4.05 26.325 6.074999999999999
647 162 1 0.0 6.074999999999999 24.3 6.074999999999999
648 162 1 0.0 6.074999999999999 26.325 4.05
649 163 1 0.0 8.1 24.3 4.05
650 163 1 0.0 8.1 26.325 6.074999999999999
651 163 1 0.0 10.125 24.3 6.074999999999999
652 163 1 0.0 10.125 26.325 4.05
653 164 1 0.0 12.149999999999999 24.3 4.05
654 164 1 0.0 12.149999999999999 26.325 6.074999999999999
655 164 1 0.0 14.174999999999999 24.3 6.074999999999999
656 164 1 0.0 14.174999999999999 26.325 4.05
657 165 1 0.0 16.2 24.3 4.05
658 165 1 0.0 16.2 26.325 6.074999999999999
659 165 1 0.0 18.224999999999998 24.3 6.074999999999999
660 165 1 0.0 18.224999999999998 26.325 4.05
661 166 1 0.0 20.25 24.3 4.05
662 166 1 0.0 20.25 26.325 6.074999999999999
663 166 1 0.0 22.275 24.3 6.074999999999999
664 166 1 0.0 22.275 26.325 4.05
665 167 1 0.0 24.3 24.3 4.05
666 167 1 0.0 24.3 26.325 6.074999999999999
667 167 1 0.0 26.325 24.3 6.074999999999999
668 167 1 0.0 26.325 26.325 4.05
669 168 1 0.0 28.35 24.3 4.05
670 168 1 0.0 28.35 26.325 6.074999999999999
671 168 1 0.0 30.375 24.3 6.074999999999999
672 168 1 0.0 30.375 26.325 4.05
673 169 1 0.0 32.4 24.3 4.05
674 169 1 0.0 32.4 26.325 6.074999999999999
675 169 1 0.0 34.425 24.3 6.074999999999999
676 169 1 0.0 34.425 26.325 4.05
677 170 1 0.0 36.449999999999996 24.3 4.05
678 170 1 0.0 36.449999999999996 26.325 6.074999999999999
679 170 1 0.0 38.474999999999994 24.3 6.074999999999999
680 170 1 0.0 38.474999999999994 26.325 4.05
681 171 1 0.0 0.0 28.35 4.05
682 171 1 0.0 0.0 30.375 6.074999999999999
683 171 1 0.0 2.025 28.35 6.074999999999999
684 171 1 0.0 2.025 30.375 4.05
685 172 1 0.0 4.05 28.35 4.05
686 172 1 0.0 4.05 30.375 6.074999999999999
687 172 1 0.0 6.074999999999999 28.35 6.074999999999999
688 172 1 0.0 6.074999999999999 30.375 4.05
689 173 1 0.0 8.1 28.35 4.05
690 173 1 0.0 8.1 30.375 6.074999999999999
691 173 1 0.0 10.125 28.35 6.074999999999999
692 173 1 0.0 10.125 30.375 4.05
693 174 1 0.0 12.149999999999999 28.35 4.05
694 174 1 0.0 12.149999999999999 30.375 6.074999999999999
695 174 1 0.0 14.174999999999999 28.35 6.074999999999999
696 174 1 0.0 14.174999999999999 30.375 4.05
697 175 1 0.0 16.2 28.35 4.05
698 175 1 0.0 16.2 30.375 6.074999999999999
699 175 1 0.0 18.224999999999998 28.35 6.074999999999999
700 175 1 0.0 18.224999999999998 30.375 4.05
701 176 1 0.0 20.25 28.35 4.05
702 176 1 0.0 20.25 30.375 6.074999999999999
703 176 1 0.0 22.275 28.35 6.074999999999999
704 176 1 0.0 22.275 30.375 4.05
705 177 1 0.0 24.3 28.35 4.05
706 177 1 0.0 24.3 30.375 6.074999999999999
707 177 1 0.0 26.325 28.35 6.074999999999999
708 177 1 0.0 26.325 30.375 4.05
709 178 1 0.0 28.35 28.35 4.05
710 178 1 0.0 28.35 30.375 6.074999999999999
711 178 1 0.0 30.375 28.35 6.074999999999999
712 178 1 0.0 30.375 30.375 4.05
713 179 1 0.0 32.4 28.35 4.05
714 179 1 0.0 32.4 30.375 6.074999999999999
715 179 1 0.0 34.425 28.35 6.074999999999999
716 179 1 0.0 34.425 30.375 4.05
717 180 1 0.0 36.449999999999996 28.35 4.05
718 180 1 0.0 36.449999999999996 30.375 6.074999999999999
719 180 1 0.0 38.474999999999994 28.35 6.074999999999999
720 180 1 0.0 38.474999999999994 30.375 4.05
721 181 1 0.0 0.0 32.4 4.05
722 181 1 0.0 0.0 34.425 6.074999999999999
723 181 1 0.0 2.025 32.4 6.074999999999999
724 181 1 0.0 2.025 34.425 4.05
725 182 1 0.0 4.05 32.4 4.05
726 182 1 0.0 4.05 34.425 6.074999999999999
727 182 1 0.0 6.074999999999999 32.4 6.074999999999999
728 182 1 0.0 6.074999999999999 34.425 4.05
729 183 1 0.0 8.1 32.4 4.05
730 183 1 0.0 8.1 34.425 6.074999999999999
731 183 1 0.0 10.125 32.4 6.074999999999999
732 183 1 0.0 10.125 34.425 4.05
733 184 1 0.0 12.149999999999999 32.4 4.05
734 184 1 0.0 12.149999999999999 34.425 6.074999999999999
735 184 1 0.0 14.174999999999999 32.4 6.074999999999999
736 184 1 0.0 14.174999999999999 34.425 4.05
737 185 1 0.0 16.2 32.4 4.05
738 185 1 0.0 16.2 34.425 6.074999999999999
739 185 1 0.0 18.224999999999998 32.4 6.074999999999999